<?xml version="1.0" encoding="UTF-8"?>

<!-- generated on 2022-05-05 20:39:56 by Eclipse SUMO sumo Version 1.9.2

SIMULATION_DELAY = "0"
SIMULATION_CLIENTS = "1"
SIMULATION_STEP_LENGTH = "0.001"

<configuration xmlns:xsi="http://www.w3.org/2001/XMLSchema-instance" xsi:noNamespaceSchemaLocation="http://sumo.dlr.de/xsd/sumoConfiguration.xsd">

    <input>
        <net-file value=".\inputs\concordia_sgw_region.net.xml"/>
        <route-files value="./inputs/vehicle_route_types.rou.xml,./inputs/random_trips_3.xml"/>
        <additional-files value="./inputs/concordia_sgw_region.poly.xml"/>
    </input>

    <output>
        <precision value="3"/>
        <netstate-dump.precision value="3"/>
        <emission-output.precision value="3"/>
        <battery-output.precision value="3"/>
        <elechybrid-output.precision value="3"/>
        <tripinfo-output value="tripinfo.xml"/>
        <tripinfo-output.write-unfinished value="true"/>
    </output>

    <time>
        <step-length value="0.001"/>
    </time>

    <report>
        <verbose value="true"/>
        <error-log value="errors.txt"/>
        <duration-log.statistics value="true"/>
    </report>

    <traci_server>
        <remote-port value="8883"/>
    </traci_server>

    <gui_only>
        <gui-settings-file value="./inputs/view.settings.xml"/>
        <start value="true"/>
        <delay value="0"/>
        <tracker-interval value="0.001"/>
    </gui_only>

</configuration>
-->

<tripinfos xmlns:xsi="http://www.w3.org/2001/XMLSchema-instance" xsi:noNamespaceSchemaLocation="http://sumo.dlr.de/xsd/tripinfo_file.xsd">
    <tripinfo id="0" depart="0.000" departLane="-165217870#1_0" departPos="5.100" departSpeed="0.000" departDelay="0.000" arrival="17.239" arrivalLane="165217870#1_1" arrivalPos="73.470" arrivalSpeed="17.362" duration="17.239" routeLength="146.520" waitingTime="0.038" waitingCount="1" stopTime="0.000" timeLoss="11.215" rerouteNo="0" devices="tripinfo_0 routing_0" vType="DEFAULT_VEHTYPE" speedFactor="1.060" vaporized="" />
    <tripinfo id="59" depart="29.000" departLane="330150434#8_0" departPos="5.100" departSpeed="0.000" departDelay="0.000" arrival="38.815" arrivalLane="330150434#9_0" arrivalPos="30.950" arrivalSpeed="14.217" duration="9.815" routeLength="90.380" waitingTime="0.038" waitingCount="1" stopTime="0.000" timeLoss="3.464" rerouteNo="0" devices="tripinfo_59 routing_59" vType="DEFAULT_VEHTYPE" speedFactor="1.024" vaporized="" />
    <tripinfo id="32" depart="16.000" departLane="37997317#1_0" departPos="5.100" departSpeed="0.000" departDelay="0.000" arrival="47.891" arrivalLane="686625290#4_0" arrivalPos="73.530" arrivalSpeed="12.825" duration="31.891" routeLength="198.590" waitingTime="3.035" waitingCount="2" stopTime="0.000" timeLoss="12.930" rerouteNo="1" devices="tripinfo_32 routing_32" vType="DEFAULT_VEHTYPE" speedFactor="1.154" vaporized="" />
    <tripinfo id="51" depart="25.000" departLane="-465408860#1_0" departPos="5.100" departSpeed="0.000" departDelay="0.000" arrival="50.163" arrivalLane="165217827#1_0" arrivalPos="88.350" arrivalSpeed="9.498" duration="25.163" routeLength="170.430" waitingTime="1.930" waitingCount="3" stopTime="0.000" timeLoss="8.098" rerouteNo="0" devices="tripinfo_51 routing_51" vType="DEFAULT_VEHTYPE" speedFactor="0.855" vaporized="" />
    <tripinfo id="13" depart="6.000" departLane="455083984#1_0" departPos="5.100" departSpeed="0.000" departDelay="0.000" arrival="52.699" arrivalLane="-40325362#0_0" arrivalPos="50.850" arrivalSpeed="14.543" duration="46.699" routeLength="605.240" waitingTime="0.038" waitingCount="1" stopTime="0.000" timeLoss="12.422" rerouteNo="1" devices="tripinfo_13 routing_13" vType="DEFAULT_VEHTYPE" speedFactor="1.047" vaporized="" />
    <tripinfo id="17" depart="8.000" departLane="165337364#13_0" departPos="5.100" departSpeed="0.000" departDelay="0.000" arrival="57.108" arrivalLane="546047308#1_0" arrivalPos="90.200" arrivalSpeed="22.905" duration="49.108" routeLength="246.790" waitingTime="19.944" waitingCount="2" stopTime="0.000" timeLoss="26.907" rerouteNo="1" devices="tripinfo_17 routing_17" vType="DEFAULT_VEHTYPE" speedFactor="0.878" vaporized="" />
    <tripinfo id="2" depart="1.000" departLane="-455083993#3_0" departPos="5.100" departSpeed="0.000" departDelay="0.000" arrival="58.639" arrivalLane="329694554#6_0" arrivalPos="69.060" arrivalSpeed="8.415" duration="57.639" routeLength="468.360" waitingTime="0.038" waitingCount="1" stopTime="0.000" timeLoss="10.620" rerouteNo="1" devices="tripinfo_2 routing_2" vType="DEFAULT_VEHTYPE" speedFactor="1.010" vaporized="" />
    <tripinfo id="4" depart="2.623" departLane="165217827#3_0" departPos="5.100" departSpeed="0.000" departDelay="0.623" arrival="59.894" arrivalLane="4320471#14_0" arrivalPos="96.010" arrivalSpeed="8.582" duration="57.271" routeLength="512.320" waitingTime="0.038" waitingCount="1" stopTime="0.000" timeLoss="3.856" rerouteNo="1" devices="tripinfo_4 routing_4" vType="DEFAULT_VEHTYPE" speedFactor="1.030" vaporized="" />
    <tripinfo id="52" depart="26.000" departLane="41258974#0_0" departPos="5.100" departSpeed="0.000" departDelay="0.000" arrival="60.642" arrivalLane="165217827#2_0" arrivalPos="14.710" arrivalSpeed="12.986" duration="34.642" routeLength="288.260" waitingTime="0.298" waitingCount="2" stopTime="0.000" timeLoss="12.451" rerouteNo="1" devices="tripinfo_52 routing_52" vType="DEFAULT_VEHTYPE" speedFactor="1.169" vaporized="" />
    <tripinfo id="42" depart="21.000" departLane="546047309#0_0" departPos="5.100" departSpeed="0.000" departDelay="0.000" arrival="74.320" arrivalLane="4687641#7_0" arrivalPos="32.780" arrivalSpeed="7.973" duration="53.320" routeLength="463.940" waitingTime="0.038" waitingCount="1" stopTime="0.000" timeLoss="3.496" rerouteNo="1" devices="tripinfo_42 routing_42" vType="DEFAULT_VEHTYPE" speedFactor="0.957" vaporized="" />
    <tripinfo id="47" depart="23.000" departLane="165337364#13_0" departPos="5.100" departSpeed="0.000" departDelay="0.000" arrival="79.116" arrivalLane="4687641#2_0" arrivalPos="44.690" arrivalSpeed="8.308" duration="56.116" routeLength="380.110" waitingTime="4.006" waitingCount="2" stopTime="0.000" timeLoss="13.426" rerouteNo="1" devices="tripinfo_47 routing_47" vType="DEFAULT_VEHTYPE" speedFactor="0.997" vaporized="" />
    <tripinfo id="55" depart="27.000" departLane="165217870#1_0" departPos="5.100" departSpeed="0.000" departDelay="0.000" arrival="79.861" arrivalLane="4320471#8_0" arrivalPos="83.070" arrivalSpeed="8.355" duration="52.861" routeLength="504.690" waitingTime="0.038" waitingCount="1" stopTime="0.000" timeLoss="6.583" rerouteNo="1" devices="tripinfo_55 routing_55" vType="DEFAULT_VEHTYPE" speedFactor="1.003" vaporized="" />
    <tripinfo id="16" depart="8.000" departLane="329694554#3_0" departPos="5.100" departSpeed="0.000" departDelay="0.000" arrival="83.222" arrivalLane="26026532#1_0" arrivalPos="127.450" arrivalSpeed="12.873" duration="75.222" routeLength="739.050" waitingTime="0.038" waitingCount="1" stopTime="0.000" timeLoss="9.108" rerouteNo="1" devices="tripinfo_16 routing_16" vType="DEFAULT_VEHTYPE" speedFactor="0.927" vaporized="" />
    <tripinfo id="34" depart="17.000" departLane="37997317#2_0" departPos="5.100" departSpeed="0.000" departDelay="0.000" arrival="88.108" arrivalLane="165217834#6_0" arrivalPos="70.730" arrivalSpeed="9.760" duration="71.108" routeLength="602.620" waitingTime="8.200" waitingCount="2" stopTime="0.000" timeLoss="16.451" rerouteNo="1" devices="tripinfo_34 routing_34" vType="DEFAULT_VEHTYPE" speedFactor="1.172" vaporized="" />
    <tripinfo id="77" depart="38.000" departLane="41258974#0_0" departPos="5.100" departSpeed="0.000" departDelay="0.000" arrival="98.310" arrivalLane="4320471#8_0" arrivalPos="83.070" arrivalSpeed="8.600" duration="60.310" routeLength="577.040" waitingTime="0.038" waitingCount="1" stopTime="0.000" timeLoss="4.250" rerouteNo="1" devices="tripinfo_77 routing_77" vType="DEFAULT_VEHTYPE" speedFactor="1.032" vaporized="" />
    <tripinfo id="115" depart="57.000" departLane="686625290#12_0" departPos="5.100" departSpeed="0.000" departDelay="0.000" arrival="101.115" arrivalLane="165217870#1_1" arrivalPos="73.470" arrivalSpeed="20.655" duration="44.115" routeLength="298.450" waitingTime="9.589" waitingCount="2" stopTime="0.000" timeLoss="30.201" rerouteNo="1" devices="tripinfo_115 routing_115" vType="DEFAULT_VEHTYPE" speedFactor="1.096" vaporized="" />
    <tripinfo id="57" depart="28.000" departLane="330153472#2_0" departPos="5.100" departSpeed="0.000" departDelay="0.000" arrival="102.134" arrivalLane="463825906#1_0" arrivalPos="117.530" arrivalSpeed="23.999" duration="74.134" routeLength="370.030" waitingTime="44.192" waitingCount="2" stopTime="0.000" timeLoss="59.319" rerouteNo="1" devices="tripinfo_57 routing_57" vType="DEFAULT_VEHTYPE" speedFactor="0.899" vaporized="" />
    <tripinfo id="10" depart="5.000" departLane="455083994#1_0" departPos="5.100" departSpeed="0.000" departDelay="0.000" arrival="103.464" arrivalLane="330153473#1_3" arrivalPos="61.500" arrivalSpeed="15.149" duration="98.464" routeLength="509.820" waitingTime="41.916" waitingCount="4" stopTime="0.000" timeLoss="66.073" rerouteNo="1" devices="tripinfo_10 routing_10" vType="DEFAULT_VEHTYPE" speedFactor="1.091" vaporized="" />
    <tripinfo id="25" depart="12.000" departLane="4886314#1_0" departPos="5.100" departSpeed="0.000" departDelay="0.000" arrival="106.659" arrivalLane="330150434#7_0" arrivalPos="59.190" arrivalSpeed="11.468" duration="94.659" routeLength="547.620" waitingTime="30.888" waitingCount="2" stopTime="0.000" timeLoss="38.767" rerouteNo="1" devices="tripinfo_25 routing_25" vType="DEFAULT_VEHTYPE" speedFactor="0.826" vaporized="" />
    <tripinfo id="74" depart="37.000" departLane="465408858#1_0" departPos="5.100" departSpeed="0.000" departDelay="0.000" arrival="108.222" arrivalLane="-41258974#0_0" arrivalPos="148.180" arrivalSpeed="11.728" duration="71.222" routeLength="338.270" waitingTime="34.027" waitingCount="2" stopTime="0.000" timeLoss="44.501" rerouteNo="1" devices="tripinfo_74 routing_74" vType="DEFAULT_VEHTYPE" speedFactor="1.056" vaporized="" />
    <tripinfo id="117" depart="58.000" departLane="561690379#0_0" departPos="5.100" departSpeed="0.000" departDelay="0.000" arrival="108.345" arrivalLane="-465408860#1_0" arrivalPos="63.100" arrivalSpeed="16.350" duration="50.345" routeLength="372.380" waitingTime="16.312" waitingCount="2" stopTime="0.000" timeLoss="26.940" rerouteNo="1" devices="tripinfo_117 routing_117" vType="DEFAULT_VEHTYPE" speedFactor="1.177" vaporized="" />
    <tripinfo id="18" depart="9.000" departLane="4320471#12_0" departPos="5.100" departSpeed="0.000" departDelay="0.000" arrival="111.230" arrivalLane="103896396#1_0" arrivalPos="178.830" arrivalSpeed="10.458" duration="102.230" routeLength="593.390" waitingTime="28.396" waitingCount="3" stopTime="0.000" timeLoss="46.337" rerouteNo="1" devices="tripinfo_18 routing_18" vType="DEFAULT_VEHTYPE" speedFactor="0.941" vaporized="" />
    <tripinfo id="7" depart="3.000" departLane="329384217#5_0" departPos="5.100" departSpeed="0.000" departDelay="0.000" arrival="111.576" arrivalLane="-465411715#2_1" arrivalPos="44.560" arrivalSpeed="12.306" duration="108.576" routeLength="732.040" waitingTime="16.184" waitingCount="4" stopTime="0.000" timeLoss="38.344" rerouteNo="1" devices="tripinfo_7 routing_7" vType="DEFAULT_VEHTYPE" speedFactor="0.886" vaporized="" />
    <tripinfo id="65" depart="32.000" departLane="399806485_0" departPos="5.100" departSpeed="0.000" departDelay="0.000" arrival="112.396" arrivalLane="-41258974#0_0" arrivalPos="148.180" arrivalSpeed="10.417" duration="80.396" routeLength="490.760" waitingTime="15.399" waitingCount="2" stopTime="0.000" timeLoss="34.703" rerouteNo="1" devices="tripinfo_65 routing_65" vType="DEFAULT_VEHTYPE" speedFactor="0.938" vaporized="" />
    <tripinfo id="29" depart="14.000" departLane="-455083994#2_0" departPos="5.100" departSpeed="0.000" departDelay="0.000" arrival="112.817" arrivalLane="-40325362#0_0" arrivalPos="50.850" arrivalSpeed="15.720" duration="98.817" routeLength="808.040" waitingTime="16.720" waitingCount="2" stopTime="0.000" timeLoss="45.159" rerouteNo="1" devices="tripinfo_29 routing_29" vType="DEFAULT_VEHTYPE" speedFactor="1.132" vaporized="" />
    <tripinfo id="101" depart="50.000" departLane="-465411713#0_0" departPos="5.100" departSpeed="0.000" departDelay="0.000" arrival="113.689" arrivalLane="-465408862#0_0" arrivalPos="123.970" arrivalSpeed="29.586" duration="63.689" routeLength="616.800" waitingTime="17.521" waitingCount="2" stopTime="0.000" timeLoss="35.337" rerouteNo="1" devices="tripinfo_101 routing_101" vType="DEFAULT_VEHTYPE" speedFactor="1.065" vaporized="" />
    <tripinfo id="105" depart="52.000" departLane="330150434#2_0" departPos="5.100" departSpeed="0.000" departDelay="0.000" arrival="114.437" arrivalLane="41258976#1_0" arrivalPos="125.380" arrivalSpeed="9.931" duration="62.437" routeLength="729.970" waitingTime="0.038" waitingCount="1" stopTime="0.000" timeLoss="7.087" rerouteNo="1" devices="tripinfo_105 routing_105" vType="DEFAULT_VEHTYPE" speedFactor="0.894" vaporized="" />
    <tripinfo id="45" depart="22.000" departLane="-41258976#2_0" departPos="5.100" departSpeed="0.000" departDelay="0.000" arrival="115.423" arrivalLane="455083994#1_0" arrivalPos="225.210" arrivalSpeed="11.591" duration="93.423" routeLength="616.070" waitingTime="19.633" waitingCount="3" stopTime="0.000" timeLoss="39.461" rerouteNo="1" devices="tripinfo_45 routing_45" vType="DEFAULT_VEHTYPE" speedFactor="1.043" vaporized="" />
    <tripinfo id="116" depart="58.000" departLane="330150434#2_0" departPos="5.100" departSpeed="0.000" departDelay="0.000" arrival="116.432" arrivalLane="686625290#7_0" arrivalPos="108.370" arrivalSpeed="10.243" duration="58.432" routeLength="545.780" waitingTime="0.038" waitingCount="1" stopTime="0.000" timeLoss="3.926" rerouteNo="1" devices="tripinfo_116 routing_116" vType="DEFAULT_VEHTYPE" speedFactor="0.922" vaporized="" />
    <tripinfo id="service_vehicle_1" depart="0.000" departLane="165217827#3_0" departPos="5.100" departSpeed="0.000" departDelay="0.000" arrival="116.957" arrivalLane="-26026532#1_0" arrivalPos="120.920" arrivalSpeed="13.032" duration="116.957" routeLength="872.440" waitingTime="20.873" waitingCount="2" stopTime="0.000" timeLoss="46.270" rerouteNo="1" devices="tripinfo_service_vehicle_1 routing_service_vehicle_1" vType="service_vehicle" speedFactor="0.938" vaporized="" />
    <tripinfo id="service_vehicle_2" depart="0.000" departLane="465411711#1_0" departPos="5.100" departSpeed="0.000" departDelay="0.000" arrival="118.036" arrivalLane="686625290#7_0" arrivalPos="108.370" arrivalSpeed="11.225" duration="118.036" routeLength="876.000" waitingTime="25.076" waitingCount="2" stopTime="0.000" timeLoss="39.459" rerouteNo="1" devices="tripinfo_service_vehicle_2 routing_service_vehicle_2" vType="service_vehicle" speedFactor="1.010" vaporized="" />
    <tripinfo id="43" depart="21.000" departLane="20178495#0_0" departPos="5.100" departSpeed="0.000" departDelay="0.000" arrival="118.529" arrivalLane="-41258974#0_0" arrivalPos="148.180" arrivalSpeed="12.131" duration="97.529" routeLength="967.530" waitingTime="5.132" waitingCount="2" stopTime="0.000" timeLoss="32.415" rerouteNo="1" devices="tripinfo_43 routing_43" vType="DEFAULT_VEHTYPE" speedFactor="1.092" vaporized="" />
    <tripinfo id="91" depart="45.242" departLane="-465411712#0_0" departPos="5.100" departSpeed="0.000" departDelay="0.242" arrival="121.573" arrivalLane="-465408860#1_1" arrivalPos="63.100" arrivalSpeed="14.121" duration="76.331" routeLength="513.890" waitingTime="31.979" waitingCount="2" stopTime="0.000" timeLoss="51.030" rerouteNo="1" devices="tripinfo_91 routing_91" vType="DEFAULT_VEHTYPE" speedFactor="1.017" vaporized="" />
    <tripinfo id="14" depart="7.000" departLane="165337364#6_0" departPos="5.100" departSpeed="0.000" departDelay="0.000" arrival="124.334" arrivalLane="-455083994#2_0" arrivalPos="225.210" arrivalSpeed="12.475" duration="117.334" routeLength="901.180" waitingTime="19.935" waitingCount="2" stopTime="0.000" timeLoss="38.007" rerouteNo="1" devices="tripinfo_14 routing_14" vType="DEFAULT_VEHTYPE" speedFactor="1.123" vaporized="" />
    <tripinfo id="110" depart="55.000" departLane="165337364#13_0" departPos="5.100" departSpeed="0.000" departDelay="0.000" arrival="124.399" arrivalLane="463825906#1_1" arrivalPos="117.530" arrivalSpeed="26.658" duration="69.399" routeLength="877.040" waitingTime="3.535" waitingCount="2" stopTime="0.000" timeLoss="15.920" rerouteNo="1" devices="tripinfo_110 routing_110" vType="DEFAULT_VEHTYPE" speedFactor="0.960" vaporized="" />
    <tripinfo id="113" depart="56.000" departLane="465411713#0_0" departPos="5.100" departSpeed="0.000" departDelay="0.000" arrival="124.615" arrivalLane="165217827#1_0" arrivalPos="88.350" arrivalSpeed="11.279" duration="68.615" routeLength="361.260" waitingTime="30.663" waitingCount="3" stopTime="0.000" timeLoss="41.967" rerouteNo="1" devices="tripinfo_113 routing_113" vType="DEFAULT_VEHTYPE" speedFactor="1.099" vaporized="" />
    <tripinfo id="88" depart="44.000" departLane="455083984#1_0" departPos="5.100" departSpeed="0.000" departDelay="0.000" arrival="124.642" arrivalLane="41258973#2_0" arrivalPos="88.340" arrivalSpeed="27.262" duration="80.642" routeLength="648.050" waitingTime="30.889" waitingCount="2" stopTime="0.000" timeLoss="47.515" rerouteNo="1" devices="tripinfo_88 routing_88" vType="DEFAULT_VEHTYPE" speedFactor="1.043" vaporized="" />
    <tripinfo id="12" depart="6.000" departLane="4320471#14_0" departPos="5.100" departSpeed="0.000" departDelay="0.000" arrival="124.718" arrivalLane="4687641#13_0" arrivalPos="63.280" arrivalSpeed="8.548" duration="118.718" routeLength="748.360" waitingTime="22.589" waitingCount="3" stopTime="0.000" timeLoss="39.346" rerouteNo="1" devices="tripinfo_12 routing_12" vType="DEFAULT_VEHTYPE" speedFactor="1.026" vaporized="" />
    <tripinfo id="24" depart="12.000" departLane="22080579#1_0" departPos="5.100" departSpeed="0.000" departDelay="0.000" arrival="126.922" arrivalLane="4320471#3_0" arrivalPos="10.180" arrivalSpeed="7.409" duration="114.922" routeLength="971.260" waitingTime="4.014" waitingCount="2" stopTime="0.000" timeLoss="24.717" rerouteNo="1" devices="tripinfo_24 routing_24" vType="DEFAULT_VEHTYPE" speedFactor="0.890" vaporized="" />
    <tripinfo id="6" depart="3.000" departLane="-165217827#1_0" departPos="5.100" departSpeed="0.000" departDelay="0.000" arrival="129.310" arrivalLane="465411711#1_1" arrivalPos="121.740" arrivalSpeed="22.128" duration="126.310" routeLength="465.850" waitingTime="63.995" waitingCount="6" stopTime="0.000" timeLoss="103.505" rerouteNo="1" devices="tripinfo_6 routing_6" vType="DEFAULT_VEHTYPE" speedFactor="1.046" vaporized="" />
    <tripinfo id="19" depart="9.000" departLane="1042466504#1_0" departPos="5.100" departSpeed="0.000" departDelay="0.000" arrival="133.341" arrivalLane="329384217#10_1" arrivalPos="48.850" arrivalSpeed="10.400" duration="124.341" routeLength="545.140" waitingTime="55.918" waitingCount="2" stopTime="0.000" timeLoss="60.516" rerouteNo="1" devices="tripinfo_19 routing_19" vType="DEFAULT_VEHTYPE" speedFactor="0.936" vaporized="" />
    <tripinfo id="62" depart="31.000" departLane="165337364#11_0" departPos="5.100" departSpeed="0.000" departDelay="0.000" arrival="133.583" arrivalLane="1042466504#1_0" arrivalPos="84.170" arrivalSpeed="9.323" duration="102.583" routeLength="834.350" waitingTime="19.471" waitingCount="2" stopTime="0.000" timeLoss="30.355" rerouteNo="1" devices="tripinfo_62 routing_62" vType="DEFAULT_VEHTYPE" speedFactor="1.119" vaporized="" />
    <tripinfo id="93" depart="46.000" departLane="455083993#3_0" departPos="5.100" departSpeed="0.000" departDelay="0.000" arrival="134.872" arrivalLane="1042466504#4_0" arrivalPos="77.050" arrivalSpeed="6.943" duration="88.872" routeLength="231.270" waitingTime="49.802" waitingCount="3" stopTime="0.000" timeLoss="56.989" rerouteNo="1" devices="tripinfo_93 routing_93" vType="DEFAULT_VEHTYPE" speedFactor="0.834" vaporized="" />
    <tripinfo id="38" depart="19.000" departLane="4687641#9_0" departPos="5.100" departSpeed="0.000" departDelay="0.000" arrival="138.026" arrivalLane="165337364#13_0" arrivalPos="92.860" arrivalSpeed="3.489" duration="119.026" routeLength="738.420" waitingTime="25.796" waitingCount="3" stopTime="0.000" timeLoss="46.044" rerouteNo="1" devices="tripinfo_38 routing_38" vType="DEFAULT_VEHTYPE" speedFactor="1.180" vaporized="" />
    <tripinfo id="35" depart="17.000" departLane="-455083994#2_0" departPos="5.100" departSpeed="0.000" departDelay="0.000" arrival="139.605" arrivalLane="330150434#2_2" arrivalPos="107.070" arrivalSpeed="5.294" duration="122.605" routeLength="635.080" waitingTime="38.825" waitingCount="4" stopTime="0.000" timeLoss="62.332" rerouteNo="1" devices="tripinfo_35 routing_35" vType="DEFAULT_VEHTYPE" speedFactor="0.995" vaporized="" />
    <tripinfo id="119" depart="59.000" departLane="-455083994#2_0" departPos="5.100" departSpeed="0.000" departDelay="0.000" arrival="142.680" arrivalLane="330150434#2_2" arrivalPos="107.070" arrivalSpeed="13.769" duration="83.680" routeLength="635.080" waitingTime="6.821" waitingCount="2" stopTime="0.000" timeLoss="23.198" rerouteNo="1" devices="tripinfo_119 routing_119" vType="DEFAULT_VEHTYPE" speedFactor="0.991" vaporized="" />
    <tripinfo id="102" depart="51.000" departLane="48678911#3_0" departPos="5.100" departSpeed="0.000" departDelay="0.000" arrival="144.336" arrivalLane="465408860#1_0" arrivalPos="63.100" arrivalSpeed="13.289" duration="93.336" routeLength="462.760" waitingTime="29.338" waitingCount="2" stopTime="0.000" timeLoss="41.791" rerouteNo="1" devices="tripinfo_102 routing_102" vType="DEFAULT_VEHTYPE" speedFactor="0.957" vaporized="" />
    <tripinfo id="82" depart="41.000" departLane="330150434#2_0" departPos="5.100" departSpeed="0.000" departDelay="0.000" arrival="144.752" arrivalLane="4320471#8_0" arrivalPos="83.070" arrivalSpeed="8.314" duration="103.752" routeLength="835.290" waitingTime="3.981" waitingCount="2" stopTime="0.000" timeLoss="10.716" rerouteNo="1" devices="tripinfo_82 routing_82" vType="DEFAULT_VEHTYPE" speedFactor="0.998" vaporized="" />
    <tripinfo id="86" depart="43.000" departLane="546047309#0_0" departPos="5.100" departSpeed="0.000" departDelay="0.000" arrival="145.678" arrivalLane="4687641#7_0" arrivalPos="32.780" arrivalSpeed="8.129" duration="102.678" routeLength="463.940" waitingTime="38.922" waitingCount="3" stopTime="0.000" timeLoss="53.814" rerouteNo="1" devices="tripinfo_86 routing_86" vType="DEFAULT_VEHTYPE" speedFactor="0.976" vaporized="" />
    <tripinfo id="48" depart="24.000" departLane="165217834#0_0" departPos="5.100" departSpeed="0.000" departDelay="0.000" arrival="146.084" arrivalLane="330153473#1_0" arrivalPos="61.500" arrivalSpeed="12.508" duration="122.084" routeLength="818.960" waitingTime="30.040" waitingCount="3" stopTime="0.000" timeLoss="39.033" rerouteNo="1" devices="tripinfo_48 routing_48" vType="DEFAULT_VEHTYPE" speedFactor="0.901" vaporized="" />
    <tripinfo id="109" depart="54.000" departLane="465411715#1_0" departPos="5.100" departSpeed="0.000" departDelay="0.000" arrival="146.664" arrivalLane="4687641#13_0" arrivalPos="63.280" arrivalSpeed="8.870" duration="92.664" routeLength="392.350" waitingTime="34.230" waitingCount="3" stopTime="0.000" timeLoss="53.027" rerouteNo="1" devices="tripinfo_109 routing_109" vType="DEFAULT_VEHTYPE" speedFactor="1.065" vaporized="" />
    <tripinfo id="33" depart="16.000" departLane="-165217827#2_0" departPos="5.100" departSpeed="0.000" departDelay="0.000" arrival="147.297" arrivalLane="455083980#0_0" arrivalPos="77.680" arrivalSpeed="20.632" duration="131.297" routeLength="600.580" waitingTime="59.835" waitingCount="3" stopTime="0.000" timeLoss="81.061" rerouteNo="1" devices="tripinfo_33 routing_33" vType="DEFAULT_VEHTYPE" speedFactor="1.005" vaporized="" />
    <tripinfo id="60" depart="30.000" departLane="455083976#0_0" departPos="5.100" departSpeed="0.000" departDelay="0.000" arrival="147.808" arrivalLane="686625290#7_0" arrivalPos="108.370" arrivalSpeed="10.770" duration="117.808" routeLength="1000.980" waitingTime="41.056" waitingCount="2" stopTime="0.000" timeLoss="61.027" rerouteNo="1" devices="tripinfo_60 routing_60" vType="DEFAULT_VEHTYPE" speedFactor="0.970" vaporized="" />
    <tripinfo id="85" depart="42.000" departLane="-41258976#2_0" departPos="5.100" departSpeed="0.000" departDelay="0.000" arrival="152.925" arrivalLane="1042466504#7_0" arrivalPos="67.080" arrivalSpeed="9.561" duration="110.925" routeLength="646.640" waitingTime="28.594" waitingCount="3" stopTime="0.000" timeLoss="60.012" rerouteNo="1" devices="tripinfo_85 routing_85" vType="DEFAULT_VEHTYPE" speedFactor="1.148" vaporized="" />
    <tripinfo id="41" depart="20.000" departLane="-165217827#1_0" departPos="5.100" departSpeed="0.000" departDelay="0.000" arrival="159.585" arrivalLane="165337364#6_0" arrivalPos="41.990" arrivalSpeed="8.582" duration="139.585" routeLength="632.530" waitingTime="58.349" waitingCount="4" stopTime="0.000" timeLoss="82.163" rerouteNo="1" devices="tripinfo_41 routing_41" vType="DEFAULT_VEHTYPE" speedFactor="1.030" vaporized="" />
    <tripinfo id="67" depart="33.000" departLane="4687641#2_0" departPos="5.100" departSpeed="0.000" departDelay="0.000" arrival="159.609" arrivalLane="103896396#1_0" arrivalPos="178.830" arrivalSpeed="10.074" duration="126.609" routeLength="630.440" waitingTime="42.660" waitingCount="3" stopTime="0.000" timeLoss="49.852" rerouteNo="1" devices="tripinfo_67 routing_67" vType="DEFAULT_VEHTYPE" speedFactor="0.907" vaporized="" />
    <tripinfo id="service_vehicle_0" depart="0.000" departLane="-26026532#1_0" departPos="5.100" departSpeed="0.000" departDelay="0.000" arrival="159.815" arrivalLane="48678911#3_0" arrivalPos="119.240" arrivalSpeed="8.829" duration="159.815" routeLength="1353.880" waitingTime="45.152" waitingCount="2" stopTime="0.000" timeLoss="75.692" rerouteNo="1" devices="tripinfo_service_vehicle_0 routing_service_vehicle_0" vType="service_vehicle" speedFactor="1.060" vaporized="" />
    <tripinfo id="30" depart="15.000" departLane="4320471#2_0" departPos="1.490" departSpeed="0.000" departDelay="0.000" arrival="161.672" arrivalLane="465408858#1_0" arrivalPos="38.510" arrivalSpeed="12.935" duration="146.672" routeLength="559.820" waitingTime="68.517" waitingCount="3" stopTime="0.000" timeLoss="89.598" rerouteNo="1" devices="tripinfo_30 routing_30" vType="DEFAULT_VEHTYPE" speedFactor="0.931" vaporized="" />
    <tripinfo id="53" depart="26.000" departLane="-41258976#2_0" departPos="5.100" departSpeed="0.000" departDelay="0.000" arrival="162.738" arrivalLane="4320471#1_0" arrivalPos="34.580" arrivalSpeed="8.469" duration="136.738" routeLength="919.030" waitingTime="21.345" waitingCount="4" stopTime="0.000" timeLoss="55.436" rerouteNo="1" devices="tripinfo_53 routing_53" vType="DEFAULT_VEHTYPE" speedFactor="1.017" vaporized="" />
    <tripinfo id="64" depart="32.000" departLane="4886314#1_0" departPos="5.100" departSpeed="0.000" departDelay="0.000" arrival="162.786" arrivalLane="330150434#2_0" arrivalPos="107.070" arrivalSpeed="13.708" duration="130.786" routeLength="821.340" waitingTime="45.807" waitingCount="2" stopTime="0.000" timeLoss="56.330" rerouteNo="1" devices="tripinfo_64 routing_64" vType="DEFAULT_VEHTYPE" speedFactor="0.987" vaporized="" />
    <tripinfo id="114" depart="60.642" departLane="165217827#2_0" departPos="5.100" departSpeed="0.000" departDelay="3.642" arrival="168.835" arrivalLane="165337364#7_0" arrivalPos="52.820" arrivalSpeed="8.405" duration="108.193" routeLength="738.350" waitingTime="22.967" waitingCount="2" stopTime="0.000" timeLoss="37.409" rerouteNo="1" devices="tripinfo_114 routing_114" vType="DEFAULT_VEHTYPE" speedFactor="1.009" vaporized="" />
    <tripinfo id="46" depart="23.000" departLane="-465411709_0" departPos="5.100" departSpeed="0.000" departDelay="0.000" arrival="170.149" arrivalLane="330150435#1_0" arrivalPos="122.460" arrivalSpeed="9.062" duration="147.149" routeLength="601.780" waitingTime="72.255" waitingCount="5" stopTime="0.000" timeLoss="96.320" rerouteNo="1" devices="tripinfo_46 routing_46" vType="DEFAULT_VEHTYPE" speedFactor="1.088" vaporized="" />
    <tripinfo id="61" depart="30.000" departLane="330150434#2_0" departPos="5.100" departSpeed="0.000" departDelay="0.000" arrival="170.544" arrivalLane="19912054#1_0" arrivalPos="85.790" arrivalSpeed="9.016" duration="140.544" routeLength="915.120" waitingTime="25.301" waitingCount="4" stopTime="0.000" timeLoss="60.017" rerouteNo="1" devices="tripinfo_61 routing_61" vType="DEFAULT_VEHTYPE" speedFactor="1.082" vaporized="" />
    <tripinfo id="70" depart="35.000" departLane="465411711#1_0" departPos="5.100" departSpeed="0.000" departDelay="0.000" arrival="175.974" arrivalLane="330150434#7_0" arrivalPos="59.190" arrivalSpeed="14.196" duration="140.974" routeLength="597.120" waitingTime="74.833" waitingCount="3" stopTime="0.000" timeLoss="93.673" rerouteNo="1" devices="tripinfo_70 routing_70" vType="DEFAULT_VEHTYPE" speedFactor="1.022" vaporized="" />
    <tripinfo id="94" depart="47.000" departLane="165337364#13_0" departPos="5.100" departSpeed="0.000" departDelay="0.000" arrival="176.905" arrivalLane="330150435#4_0" arrivalPos="124.980" arrivalSpeed="7.674" duration="129.905" routeLength="1274.970" waitingTime="8.225" waitingCount="2" stopTime="0.000" timeLoss="27.543" rerouteNo="1" devices="tripinfo_94 routing_94" vType="DEFAULT_VEHTYPE" speedFactor="0.921" vaporized="" />