<?xml version="1.0" encoding="UTF-8"?>

<!-- generated on 2022-05-05 20:50:03 by Eclipse SUMO sumo Version 1.9.2
<configuration xmlns:xsi="http://www.w3.org/2001/XMLSchema-instance" xsi:noNamespaceSchemaLocation="http://sumo.dlr.de/xsd/sumoConfiguration.xsd">

    <input>
        <net-file value=".\inputs\concordia_sgw_region.net.xml"/>
        <route-files value="./inputs/vehicle_route_types.rou.xml,./inputs/random_trips_3.xml"/>
        <additional-files value="./inputs/concordia_sgw_region.poly.xml"/>
    </input>

    <output>
        <tripinfo-output value="tripinfo.xml"/>
        <tripinfo-output.write-unfinished value="true"/>
    </output>

    <report>
        <verbose value="true"/>
        <error-log value="errors.txt"/>
        <duration-log.statistics value="true"/>
    </report>

    <traci_server>
        <remote-port value="8883"/>
    </traci_server>

    <gui_only>
        <gui-settings-file value="./inputs/view.settings.xml"/>
        <start value="true"/>
        <delay value="0"/>
    </gui_only>

</configuration>
-->

<tripinfos xmlns:xsi="http://www.w3.org/2001/XMLSchema-instance" xsi:noNamespaceSchemaLocation="http://sumo.dlr.de/xsd/tripinfo_file.xsd">
    <tripinfo id="0" depart="0.00" departLane="-165217870#1_0" departPos="5.10" departSpeed="0.00" departDelay="0.00" arrival="18.00" arrivalLane="165217870#1_1" arrivalPos="73.47" arrivalSpeed="16.95" duration="18.00" routeLength="146.52" waitingTime="0.00" waitingCount="0" stopTime="0.00" timeLoss="12.12" rerouteNo="0" devices="tripinfo_0 routing_0" vType="DEFAULT_VEHTYPE" speedFactor="1.06" vaporized=""/>
    <tripinfo id="59" depart="29.00" departLane="330150434#8_0" departPos="5.10" departSpeed="0.00" departDelay="0.00" arrival="40.00" arrivalLane="330150434#9_0" arrivalPos="30.95" arrivalSpeed="13.27" duration="11.00" routeLength="90.38" waitingTime="0.00" waitingCount="0" stopTime="0.00" timeLoss="3.93" rerouteNo="0" devices="tripinfo_59 routing_59" vType="DEFAULT_VEHTYPE" speedFactor="1.02" vaporized=""/>
    <tripinfo id="32" depart="16.00" departLane="37997317#1_0" departPos="5.10" departSpeed="0.00" departDelay="0.00" arrival="48.00" arrivalLane="686625290#4_0" arrivalPos="73.53" arrivalSpeed="12.11" duration="32.00" routeLength="198.59" waitingTime="2.00" waitingCount="1" stopTime="0.00" timeLoss="12.23" rerouteNo="1" devices="tripinfo_32 routing_32" vType="DEFAULT_VEHTYPE" speedFactor="1.15" vaporized=""/>
    <tripinfo id="51" depart="25.00" departLane="-465408860#1_0" departPos="5.10" departSpeed="0.00" departDelay="0.00" arrival="50.00" arrivalLane="165217827#1_0" arrivalPos="88.35" arrivalSpeed="8.70" duration="25.00" routeLength="170.43" waitingTime="0.00" waitingCount="0" stopTime="0.00" timeLoss="7.23" rerouteNo="0" devices="tripinfo_51 routing_51" vType="DEFAULT_VEHTYPE" speedFactor="0.85" vaporized=""/>
    <tripinfo id="13" depart="6.00" departLane="455083984#1_0" departPos="5.10" departSpeed="0.00" departDelay="0.00" arrival="56.00" arrivalLane="-40325362#0_0" arrivalPos="50.85" arrivalSpeed="13.35" duration="50.00" routeLength="605.24" waitingTime="0.00" waitingCount="0" stopTime="0.00" timeLoss="15.56" rerouteNo="1" devices="tripinfo_13 routing_13" vType="DEFAULT_VEHTYPE" speedFactor="1.05" vaporized=""/>
    <tripinfo id="17" depart="8.00" departLane="165337364#13_0" departPos="5.10" departSpeed="0.00" departDelay="0.00" arrival="57.00" arrivalLane="546047308#1_0" arrivalPos="90.20" arrivalSpeed="21.42" duration="49.00" routeLength="246.79" waitingTime="16.00" waitingCount="1" stopTime="0.00" timeLoss="26.37" rerouteNo="1" devices="tripinfo_17 routing_17" vType="DEFAULT_VEHTYPE" speedFactor="0.88" vaporized=""/>
    <tripinfo id="2" depart="1.00" departLane="-455083993#3_0" departPos="5.10" departSpeed="0.00" departDelay="0.00" arrival="59.00" arrivalLane="329694554#6_0" arrivalPos="69.06" arrivalSpeed="7.77" duration="58.00" routeLength="468.36" waitingTime="0.00" waitingCount="0" stopTime="0.00" timeLoss="10.58" rerouteNo="1" devices="tripinfo_2 routing_2" vType="DEFAULT_VEHTYPE" speedFactor="1.01" vaporized=""/>
    <tripinfo id="52" depart="26.00" departLane="41258974#0_0" departPos="5.10" departSpeed="0.00" departDelay="0.00" arrival="61.00" arrivalLane="165217827#2_0" arrivalPos="14.71" arrivalSpeed="12.73" duration="35.00" routeLength="288.26" waitingTime="3.00" waitingCount="1" stopTime="0.00" timeLoss="12.18" rerouteNo="1" devices="tripinfo_52 routing_52" vType="DEFAULT_VEHTYPE" speedFactor="1.17" vaporized=""/>
    <tripinfo id="4" depart="3.00" departLane="165217827#3_0" departPos="5.10" departSpeed="0.00" departDelay="1.00" arrival="65.00" arrivalLane="4320471#14_0" arrivalPos="96.01" arrivalSpeed="7.42" duration="62.00" routeLength="512.32" waitingTime="0.00" waitingCount="0" stopTime="0.00" timeLoss="8.46" rerouteNo="1" devices="tripinfo_4 routing_4" vType="DEFAULT_VEHTYPE" speedFactor="1.03" vaporized=""/>
    <tripinfo id="42" depart="21.00" departLane="546047309#0_0" departPos="5.10" departSpeed="0.00" departDelay="0.00" arrival="78.00" arrivalLane="4687641#7_0" arrivalPos="32.78" arrivalSpeed="7.89" duration="57.00" routeLength="463.94" waitingTime="0.00" waitingCount="0" stopTime="0.00" timeLoss="6.86" rerouteNo="1" devices="tripinfo_42 routing_42" vType="DEFAULT_VEHTYPE" speedFactor="0.96" vaporized=""/>
    <tripinfo id="47" depart="23.00" departLane="165337364#13_0" departPos="5.10" departSpeed="0.00" departDelay="0.00" arrival="82.00" arrivalLane="4687641#2_0" arrivalPos="44.69" arrivalSpeed="7.67" duration="59.00" routeLength="380.11" waitingTime="6.00" waitingCount="1" stopTime="0.00" timeLoss="15.64" rerouteNo="1" devices="tripinfo_47 routing_47" vType="DEFAULT_VEHTYPE" speedFactor="1.00" vaporized=""/>
    <tripinfo id="55" depart="27.00" departLane="165217870#1_0" departPos="5.10" departSpeed="0.00" departDelay="0.00" arrival="84.00" arrivalLane="4320471#8_0" arrivalPos="83.07" arrivalSpeed="7.57" duration="57.00" routeLength="504.69" waitingTime="0.00" waitingCount="0" stopTime="0.00" timeLoss="9.47" rerouteNo="1" devices="tripinfo_55 routing_55" vType="DEFAULT_VEHTYPE" speedFactor="1.00" vaporized=""/>
    <tripinfo id="16" depart="8.00" departLane="329694554#3_0" departPos="5.10" departSpeed="0.00" departDelay="0.00" arrival="87.00" arrivalLane="26026532#1_0" arrivalPos="127.45" arrivalSpeed="12.21" duration="79.00" routeLength="739.05" waitingTime="0.00" waitingCount="0" stopTime="0.00" timeLoss="12.17" rerouteNo="1" devices="tripinfo_16 routing_16" vType="DEFAULT_VEHTYPE" speedFactor="0.93" vaporized=""/>
    <tripinfo id="34" depart="17.00" departLane="37997317#2_0" departPos="5.10" departSpeed="0.00" departDelay="0.00" arrival="89.00" arrivalLane="165217834#6_0" arrivalPos="70.73" arrivalSpeed="9.17" duration="72.00" routeLength="602.62" waitingTime="2.00" waitingCount="1" stopTime="0.00" timeLoss="17.33" rerouteNo="1" devices="tripinfo_34 routing_34" vType="DEFAULT_VEHTYPE" speedFactor="1.17" vaporized=""/>
    <tripinfo id="57" depart="28.00" departLane="330153472#2_0" departPos="5.10" departSpeed="0.00" departDelay="0.00" arrival="101.00" arrivalLane="463825906#1_0" arrivalPos="117.53" arrivalSpeed="23.80" duration="73.00" routeLength="370.03" waitingTime="42.00" waitingCount="1" stopTime="0.00" timeLoss="58.01" rerouteNo="1" devices="tripinfo_57 routing_57" vType="DEFAULT_VEHTYPE" speedFactor="0.90" vaporized=""/>
    <tripinfo id="115" depart="57.00" departLane="686625290#12_0" departPos="5.10" departSpeed="0.00" departDelay="0.00" arrival="101.00" arrivalLane="165217870#1_0" arrivalPos="73.47" arrivalSpeed="17.19" duration="44.00" routeLength="298.45" waitingTime="14.00" waitingCount="1" stopTime="0.00" timeLoss="29.66" rerouteNo="1" devices="tripinfo_115 routing_115" vType="DEFAULT_VEHTYPE" speedFactor="1.10" vaporized=""/>
    <tripinfo id="10" depart="5.00" departLane="455083994#1_0" departPos="5.10" departSpeed="0.00" departDelay="0.00" arrival="102.00" arrivalLane="330153473#1_3" arrivalPos="61.50" arrivalSpeed="14.67" duration="97.00" routeLength="509.82" waitingTime="42.00" waitingCount="2" stopTime="0.00" timeLoss="64.50" rerouteNo="1" devices="tripinfo_10 routing_10" vType="DEFAULT_VEHTYPE" speedFactor="1.09" vaporized=""/>
    <tripinfo id="25" depart="12.00" departLane="4886314#1_0" departPos="5.10" departSpeed="0.00" departDelay="0.00" arrival="107.00" arrivalLane="330150434#7_0" arrivalPos="59.19" arrivalSpeed="11.36" duration="95.00" routeLength="547.62" waitingTime="26.00" waitingCount="1" stopTime="0.00" timeLoss="38.62" rerouteNo="1" devices="tripinfo_25 routing_25" vType="DEFAULT_VEHTYPE" speedFactor="0.83" vaporized=""/>
    <tripinfo id="74" depart="37.00" departLane="465408858#1_0" departPos="5.10" departSpeed="0.00" departDelay="0.00" arrival="109.00" arrivalLane="-41258974#0_0" arrivalPos="148.18" arrivalSpeed="10.56" duration="72.00" routeLength="338.27" waitingTime="31.00" waitingCount="1" stopTime="0.00" timeLoss="43.98" rerouteNo="1" devices="tripinfo_74 routing_74" vType="DEFAULT_VEHTYPE" speedFactor="1.06" vaporized=""/>
    <tripinfo id="117" depart="58.00" departLane="561690379#0_0" departPos="5.10" departSpeed="0.00" departDelay="0.00" arrival="111.00" arrivalLane="-465408860#1_0" arrivalPos="63.10" arrivalSpeed="16.18" duration="53.00" routeLength="372.38" waitingTime="15.00" waitingCount="2" stopTime="0.00" timeLoss="28.85" rerouteNo="1" devices="tripinfo_117 routing_117" vType="DEFAULT_VEHTYPE" speedFactor="1.18" vaporized=""/>
    <tripinfo id="18" depart="9.00" departLane="4320471#12_0" departPos="5.10" departSpeed="0.00" departDelay="0.00" arrival="112.00" arrivalLane="103896396#1_0" arrivalPos="178.83" arrivalSpeed="10.24" duration="103.00" routeLength="593.39" waitingTime="27.00" waitingCount="2" stopTime="0.00" timeLoss="46.69" rerouteNo="1" devices="tripinfo_18 routing_18" vType="DEFAULT_VEHTYPE" speedFactor="0.94" vaporized=""/>
    <tripinfo id="7" depart="3.00" departLane="329384217#5_0" departPos="5.10" departSpeed="0.00" departDelay="0.00" arrival="113.00" arrivalLane="-465411715#2_1" arrivalPos="44.56" arrivalSpeed="11.93" duration="110.00" routeLength="732.04" waitingTime="16.00" waitingCount="2" stopTime="0.00" timeLoss="39.99" rerouteNo="1" devices="tripinfo_7 routing_7" vType="DEFAULT_VEHTYPE" speedFactor="0.89" vaporized=""/>
    <tripinfo id="29" depart="14.00" departLane="-455083994#2_0" departPos="5.10" departSpeed="0.00" departDelay="0.00" arrival="114.00" arrivalLane="-40325362#0_0" arrivalPos="50.85" arrivalSpeed="15.20" duration="100.00" routeLength="808.04" waitingTime="20.00" waitingCount="1" stopTime="0.00" timeLoss="46.55" rerouteNo="1" devices="tripinfo_29 routing_29" vType="DEFAULT_VEHTYPE" speedFactor="1.13" vaporized=""/>
    <tripinfo id="101" depart="50.00" departLane="-465411713#0_0" departPos="5.10" departSpeed="0.00" departDelay="0.00" arrival="114.00" arrivalLane="-465408862#0_0" arrivalPos="123.97" arrivalSpeed="29.23" duration="64.00" routeLength="616.80" waitingTime="20.00" waitingCount="1" stopTime="0.00" timeLoss="35.24" rerouteNo="1" devices="tripinfo_101 routing_101" vType="DEFAULT_VEHTYPE" speedFactor="1.07" vaporized=""/>
    <tripinfo id="65" depart="32.00" departLane="399806485_0" departPos="5.10" departSpeed="0.00" departDelay="0.00" arrival="115.00" arrivalLane="-41258974#0_0" arrivalPos="148.18" arrivalSpeed="9.70" duration="83.00" routeLength="490.76" waitingTime="19.00" waitingCount="2" stopTime="0.00" timeLoss="36.47" rerouteNo="1" devices="tripinfo_65 routing_65" vType="DEFAULT_VEHTYPE" speedFactor="0.94" vaporized=""/>
    <tripinfo id="45" depart="22.00" departLane="-41258976#2_0" departPos="5.10" departSpeed="0.00" departDelay="0.00" arrival="116.00" arrivalLane="455083994#1_0" arrivalPos="225.21" arrivalSpeed="10.58" duration="94.00" routeLength="616.07" waitingTime="24.00" waitingCount="2" stopTime="0.00" timeLoss="39.33" rerouteNo="1" devices="tripinfo_45 routing_45" vType="DEFAULT_VEHTYPE" speedFactor="1.04" vaporized=""/>
    <tripinfo id="service_vehicle_1" depart="0.00" departLane="165217827#3_0" departPos="5.10" departSpeed="0.00" departDelay="0.00" arrival="118.00" arrivalLane="-26026532#1_0" arrivalPos="120.92" arrivalSpeed="11.81" duration="118.00" routeLength="872.44" waitingTime="23.00" waitingCount="1" stopTime="0.00" timeLoss="46.85" rerouteNo="1" devices="tripinfo_service_vehicle_1 routing_service_vehicle_1" vType="service_vehicle" speedFactor="0.94" vaporized=""/>
    <tripinfo id="43" depart="21.00" departLane="20178495#0_0" departPos="5.10" departSpeed="0.00" departDelay="0.00" arrival="118.00" arrivalLane="-41258974#0_0" arrivalPos="148.18" arrivalSpeed="11.56" duration="97.00" routeLength="967.53" waitingTime="5.00" waitingCount="1" stopTime="0.00" timeLoss="31.77" rerouteNo="1" devices="tripinfo_43 routing_43" vType="DEFAULT_VEHTYPE" speedFactor="1.09" vaporized=""/>
    <tripinfo id="110" depart="55.00" departLane="165337364#13_0" departPos="5.10" departSpeed="0.00" departDelay="0.00" arrival="121.00" arrivalLane="463825906#1_2" arrivalPos="117.53" arrivalSpeed="25.70" duration="66.00" routeLength="877.04" waitingTime="0.00" waitingCount="0" stopTime="0.00" timeLoss="12.42" rerouteNo="1" devices="tripinfo_110 routing_110" vType="DEFAULT_VEHTYPE" speedFactor="0.96" vaporized=""/>
    <tripinfo id="116" depart="58.00" departLane="330150434#2_0" departPos="5.10" departSpeed="0.00" departDelay="0.00" arrival="121.00" arrivalLane="686625290#7_0" arrivalPos="108.37" arrivalSpeed="9.51" duration="63.00" routeLength="545.78" waitingTime="0.00" waitingCount="0" stopTime="0.00" timeLoss="8.35" rerouteNo="1" devices="tripinfo_116 routing_116" vType="DEFAULT_VEHTYPE" speedFactor="0.92" vaporized=""/>
    <tripinfo id="service_vehicle_2" depart="0.00" departLane="465411711#1_0" departPos="5.10" departSpeed="0.00" departDelay="0.00" arrival="123.00" arrivalLane="686625290#7_0" arrivalPos="108.37" arrivalSpeed="11.07" duration="123.00" routeLength="876.00" waitingTime="24.00" waitingCount="1" stopTime="0.00" timeLoss="43.81" rerouteNo="1" devices="tripinfo_service_vehicle_2 routing_service_vehicle_2" vType="service_vehicle" speedFactor="1.01" vaporized=""/>
    <tripinfo id="91" depart="45.00" departLane="-465411712#0_0" departPos="5.10" departSpeed="0.00" departDelay="0.00" arrival="126.00" arrivalLane="-465408860#1_1" arrivalPos="63.10" arrivalSpeed="13.77" duration="81.00" routeLength="513.89" waitingTime="31.00" waitingCount="1" stopTime="0.00" timeLoss="55.36" rerouteNo="1" devices="tripinfo_91 routing_91" vType="DEFAULT_VEHTYPE" speedFactor="1.02" vaporized=""/>
    <tripinfo id="14" depart="7.00" departLane="165337364#6_0" departPos="5.10" departSpeed="0.00" departDelay="0.00" arrival="127.00" arrivalLane="-455083994#2_0" arrivalPos="225.21" arrivalSpeed="12.33" duration="120.00" routeLength="901.18" waitingTime="24.00" waitingCount="2" stopTime="0.00" timeLoss="40.95" rerouteNo="1" devices="tripinfo_14 routing_14" vType="DEFAULT_VEHTYPE" speedFactor="1.12" vaporized=""/>
    <tripinfo id="88" depart="44.00" departLane="455083984#1_0" departPos="5.10" departSpeed="0.00" departDelay="0.00" arrival="127.00" arrivalLane="41258973#2_0" arrivalPos="88.34" arrivalSpeed="27.20" duration="83.00" routeLength="648.05" waitingTime="30.00" waitingCount="1" stopTime="0.00" timeLoss="49.63" rerouteNo="1" devices="tripinfo_88 routing_88" vType="DEFAULT_VEHTYPE" speedFactor="1.04" vaporized=""/>
    <tripinfo id="24" depart="12.00" departLane="22080579#1_0" departPos="5.10" departSpeed="0.00" departDelay="0.00" arrival="129.00" arrivalLane="4320471#3_0" arrivalPos="10.18" arrivalSpeed="6.38" duration="117.00" routeLength="971.26" waitingTime="1.00" waitingCount="1" stopTime="0.00" timeLoss="26.07" rerouteNo="1" devices="tripinfo_24 routing_24" vType="DEFAULT_VEHTYPE" speedFactor="0.89" vaporized=""/>
    <tripinfo id="113" depart="56.00" departLane="465411713#0_0" departPos="5.10" departSpeed="0.00" departDelay="0.00" arrival="129.00" arrivalLane="165217827#1_0" arrivalPos="88.35" arrivalSpeed="9.78" duration="73.00" routeLength="361.26" waitingTime="28.00" waitingCount="2" stopTime="0.00" timeLoss="45.64" rerouteNo="1" devices="tripinfo_113 routing_113" vType="DEFAULT_VEHTYPE" speedFactor="1.10" vaporized=""/>
    <tripinfo id="6" depart="3.00" departLane="-165217827#1_0" departPos="5.10" departSpeed="0.00" departDelay="0.00" arrival="133.00" arrivalLane="465411711#1_1" arrivalPos="121.74" arrivalSpeed="23.83" duration="130.00" routeLength="465.85" waitingTime="70.00" waitingCount="4" stopTime="0.00" timeLoss="106.70" rerouteNo="1" devices="tripinfo_6 routing_6" vType="DEFAULT_VEHTYPE" speedFactor="1.05" vaporized=""/>
    <tripinfo id="19" depart="9.00" departLane="1042466504#1_0" departPos="5.10" departSpeed="0.00" departDelay="0.00" arrival="134.00" arrivalLane="329384217#10_1" arrivalPos="48.85" arrivalSpeed="9.76" duration="125.00" routeLength="545.14" waitingTime="50.00" waitingCount="1" stopTime="0.00" timeLoss="60.66" rerouteNo="1" devices="tripinfo_19 routing_19" vType="DEFAULT_VEHTYPE" speedFactor="0.94" vaporized=""/>
    <tripinfo id="62" depart="31.00" departLane="165337364#11_0" departPos="5.10" departSpeed="0.00" departDelay="0.00" arrival="136.00" arrivalLane="1042466504#1_0" arrivalPos="84.17" arrivalSpeed="8.47" duration="105.00" routeLength="834.35" waitingTime="16.00" waitingCount="1" stopTime="0.00" timeLoss="32.50" rerouteNo="1" devices="tripinfo_62 routing_62" vType="DEFAULT_VEHTYPE" speedFactor="1.12" vaporized=""/>
    <tripinfo id="35" depart="17.00" departLane="-455083994#2_0" departPos="5.10" departSpeed="0.00" departDelay="0.00" arrival="139.00" arrivalLane="330150434#2_2" arrivalPos="107.07" arrivalSpeed="10.35" duration="122.00" routeLength="635.08" waitingTime="42.00" waitingCount="2" stopTime="0.00" timeLoss="61.62" rerouteNo="1" devices="tripinfo_35 routing_35" vType="DEFAULT_VEHTYPE" speedFactor="0.99" vaporized=""/>
    <tripinfo id="38" depart="19.00" departLane="4687641#9_0" departPos="5.10" departSpeed="0.00" departDelay="0.00" arrival="139.00" arrivalLane="165337364#13_0" arrivalPos="92.86" arrivalSpeed="3.77" duration="120.00" routeLength="738.42" waitingTime="28.00" waitingCount="2" stopTime="0.00" timeLoss="46.75" rerouteNo="1" devices="tripinfo_38 routing_38" vType="DEFAULT_VEHTYPE" speedFactor="1.18" vaporized=""/>
    <tripinfo id="93" depart="46.00" departLane="455083993#3_0" departPos="5.10" departSpeed="0.00" departDelay="0.00" arrival="143.00" arrivalLane="1042466504#4_0" arrivalPos="77.05" arrivalSpeed="6.68" duration="97.00" routeLength="231.27" waitingTime="52.00" waitingCount="2" stopTime="0.00" timeLoss="64.24" rerouteNo="1" devices="tripinfo_93 routing_93" vType="DEFAULT_VEHTYPE" speedFactor="0.83" vaporized=""/>
    <tripinfo id="102" depart="51.00" departLane="48678911#3_0" departPos="5.10" departSpeed="0.00" departDelay="0.00" arrival="144.00" arrivalLane="465408860#1_0" arrivalPos="63.10" arrivalSpeed="13.08" duration="93.00" routeLength="462.76" waitingTime="25.00" waitingCount="2" stopTime="0.00" timeLoss="41.29" rerouteNo="1" devices="tripinfo_102 routing_102" vType="DEFAULT_VEHTYPE" speedFactor="0.96" vaporized=""/>
    <tripinfo id="82" depart="41.00" departLane="330150434#2_0" departPos="5.10" departSpeed="0.00" departDelay="0.00" arrival="147.00" arrivalLane="4320471#8_0" arrivalPos="83.07" arrivalSpeed="7.78" duration="106.00" routeLength="835.29" waitingTime="0.00" waitingCount="0" stopTime="0.00" timeLoss="12.54" rerouteNo="1" devices="tripinfo_82 routing_82" vType="DEFAULT_VEHTYPE" speedFactor="1.00" vaporized=""/>
    <tripinfo id="109" depart="54.00" departLane="465411715#1_0" departPos="5.10" departSpeed="0.00" departDelay="0.00" arrival="147.00" arrivalLane="4687641#13_0" arrivalPos="63.28" arrivalSpeed="8.35" duration="93.00" routeLength="392.35" waitingTime="36.00" waitingCount="3" stopTime="0.00" timeLoss="52.42" rerouteNo="1" devices="tripinfo_109 routing_109" vType="DEFAULT_VEHTYPE" speedFactor="1.06" vaporized=""/>
    <tripinfo id="33" depart="16.00" departLane="-165217827#2_0" departPos="5.10" departSpeed="0.00" departDelay="0.00" arrival="148.00" arrivalLane="455083980#0_0" arrivalPos="77.68" arrivalSpeed="22.14" duration="132.00" routeLength="600.58" waitingTime="61.00" waitingCount="2" stopTime="0.00" timeLoss="80.75" rerouteNo="1" devices="tripinfo_33 routing_33" vType="DEFAULT_VEHTYPE" speedFactor="1.01" vaporized=""/>
    <tripinfo id="86" depart="43.00" departLane="546047309#0_0" departPos="5.10" departSpeed="0.00" departDelay="0.00" arrival="148.00" arrivalLane="4687641#7_0" arrivalPos="32.78" arrivalSpeed="7.81" duration="105.00" routeLength="463.94" waitingTime="38.00" waitingCount="2" stopTime="0.00" timeLoss="55.79" rerouteNo="1" devices="tripinfo_86 routing_86" vType="DEFAULT_VEHTYPE" speedFactor="0.98" vaporized=""/>
    <tripinfo id="60" depart="30.00" departLane="455083976#0_0" departPos="5.10" departSpeed="0.00" departDelay="0.00" arrival="150.00" arrivalLane="686625290#7_0" arrivalPos="108.37" arrivalSpeed="9.78" duration="120.00" routeLength="1000.98" waitingTime="39.00" waitingCount="1" stopTime="0.00" timeLoss="62.58" rerouteNo="1" devices="tripinfo_60 routing_60" vType="DEFAULT_VEHTYPE" speedFactor="0.97" vaporized=""/>
    <tripinfo id="85" depart="42.00" departLane="-41258976#2_0" departPos="5.10" departSpeed="0.00" departDelay="0.00" arrival="157.00" arrivalLane="1042466504#7_0" arrivalPos="67.08" arrivalSpeed="9.53" duration="115.00" routeLength="646.64" waitingTime="30.00" waitingCount="2" stopTime="0.00" timeLoss="63.42" rerouteNo="1" devices="tripinfo_85 routing_85" vType="DEFAULT_VEHTYPE" speedFactor="1.15" vaporized=""/>
    <tripinfo id="41" depart="20.00" departLane="-165217827#1_0" departPos="5.10" departSpeed="0.00" departDelay="0.00" arrival="159.00" arrivalLane="165337364#6_0" arrivalPos="41.99" arrivalSpeed="7.45" duration="139.00" routeLength="632.53" waitingTime="55.00" waitingCount="3" stopTime="0.00" timeLoss="81.17" rerouteNo="1" devices="tripinfo_41 routing_41" vType="DEFAULT_VEHTYPE" speedFactor="1.03" vaporized=""/>
    <tripinfo id="67" depart="33.00" departLane="4687641#2_0" departPos="5.10" departSpeed="0.00" departDelay="0.00" arrival="160.00" arrivalLane="103896396#1_0" arrivalPos="178.83" arrivalSpeed="9.10" duration="127.00" routeLength="630.44" waitingTime="34.00" waitingCount="2" stopTime="0.00" timeLoss="50.02" rerouteNo="1" devices="tripinfo_67 routing_67" vType="DEFAULT_VEHTYPE" speedFactor="0.91" vaporized=""/>
    <tripinfo id="64" depart="32.00" departLane="4886314#1_0" departPos="5.10" departSpeed="0.00" departDelay="0.00" arrival="162.00" arrivalLane="330150434#2_0" arrivalPos="107.07" arrivalSpeed="12.93" duration="130.00" routeLength="821.34" waitingTime="37.00" waitingCount="1" stopTime="0.00" timeLoss="54.79" rerouteNo="1" devices="tripinfo_64 routing_64" vType="DEFAULT_VEHTYPE" speedFactor="0.99" vaporized=""/>
    <tripinfo id="30" depart="15.00" departLane="4320471#2_0" departPos="1.49" departSpeed="0.00" departDelay="0.00" arrival="163.00" arrivalLane="465408858#1_0" arrivalPos="38.51" arrivalSpeed="11.88" duration="148.00" routeLength="559.82" waitingTime="70.00" waitingCount="3" stopTime="0.00" timeLoss="91.11" rerouteNo="1" devices="tripinfo_30 routing_30" vType="DEFAULT_VEHTYPE" speedFactor="0.93" vaporized=""/>
    <tripinfo id="53" depart="26.00" departLane="-41258976#2_0" departPos="5.10" departSpeed="0.00" departDelay="0.00" arrival="163.00" arrivalLane="4320471#1_0" arrivalPos="34.58" arrivalSpeed="7.58" duration="137.00" routeLength="919.03" waitingTime="29.00" waitingCount="3" stopTime="0.00" timeLoss="55.29" rerouteNo="1" devices="tripinfo_53 routing_53" vType="DEFAULT_VEHTYPE" speedFactor="1.02" vaporized=""/>
    <tripinfo id="77" depart="38.00" departLane="41258974#0_0" departPos="5.10" departSpeed="0.00" departDelay="0.00" arrival="164.00" arrivalLane="4320471#8_0" arrivalPos="83.07" arrivalSpeed="8.42" duration="126.00" routeLength="577.04" waitingTime="58.00" waitingCount="1" stopTime="0.00" timeLoss="69.71" rerouteNo="1" devices="tripinfo_77 routing_77" vType="DEFAULT_VEHTYPE" speedFactor="1.03" vaporized=""/>
    <tripinfo id="service_vehicle_0" depart="0.00" departLane="-26026532#1_0" departPos="5.10" departSpeed="0.00" departDelay="0.00" arrival="165.00" arrivalLane="48678911#3_0" arrivalPos="119.24" arrivalSpeed="7.79" duration="165.00" routeLength="1353.88" waitingTime="43.00" waitingCount="1" stopTime="0.00" timeLoss="81.07" rerouteNo="1" devices="tripinfo_service_vehicle_0 routing_service_vehicle_0" vType="service_vehicle" speedFactor="1.06" vaporized=""/>
    <tripinfo id="48" depart="24.00" departLane="165217834#0_0" departPos="5.10" departSpeed="0.00" departDelay="0.00" arrival="169.00" arrivalLane="330153473#1_0" arrivalPos="61.50" arrivalSpeed="11.33" duration="145.00" routeLength="818.96" waitingTime="43.00" waitingCount="2" stopTime="0.00" timeLoss="61.23" rerouteNo="1" devices="tripinfo_48 routing_48" vType="DEFAULT_VEHTYPE" speedFactor="0.90" vaporized=""/>
    <tripinfo id="46" depart="23.00" departLane="-465411709_0" departPos="5.10" departSpeed="0.00" departDelay="0.00" arrival="170.00" arrivalLane="330150435#1_0" arrivalPos="122.46" arrivalSpeed="8.67" duration="147.00" routeLength="601.78" waitingTime="71.00" waitingCount="3" stopTime="0.00" timeLoss="95.44" rerouteNo="1" devices="tripinfo_46 routing_46" vType="DEFAULT_VEHTYPE" speedFactor="1.09" vaporized=""/>
    <tripinfo id="114" depart="61.00" departLane="165217827#2_0" departPos="5.10" departSpeed="0.00" departDelay="4.00" arrival="170.00" arrivalLane="165337364#7_0" arrivalPos="52.82" arrivalSpeed="7.63" duration="109.00" routeLength="738.35" waitingTime="19.00" waitingCount="2" stopTime="0.00" timeLoss="37.43" rerouteNo="1" devices="tripinfo_114 routing_114" vType="DEFAULT_VEHTYPE" speedFactor="1.01" vaporized=""/>
    <tripinfo id="61" depart="30.00" departLane="330150434#2_0" departPos="5.10" departSpeed="0.00" departDelay="0.00" arrival="171.00" arrivalLane="19912054#1_0" arrivalPos="85.79" arrivalSpeed="7.99" duration="141.00" routeLength="915.12" waitingTime="31.00" waitingCount="3" stopTime="0.00" timeLoss="59.71" rerouteNo="1" devices="tripinfo_61 routing_61" vType="DEFAULT_VEHTYPE" speedFactor="1.08" vaporized=""/>
    <tripinfo id="70" depart="35.00" departLane="465411711#1_0" departPos="5.10" departSpeed="0.00" departDelay="0.00" arrival="174.00" arrivalLane="330150434#7_0" arrivalPos="59.19" arrivalSpeed="13.38" duration="139.00" routeLength="597.12" waitingTime="73.00" waitingCount="2" stopTime="0.00" timeLoss="91.67" rerouteNo="1" devices="tripinfo_70 routing_70" vType="DEFAULT_VEHTYPE" speedFactor="1.02" vaporized=""/>
    <tripinfo id="94" depart="47.00" departLane="165337364#13_0" departPos="5.10" departSpeed="0.00" departDelay="0.00" arrival="179.00" arrivalLane="330150435#4_0" arrivalPos="124.98" arrivalSpeed="7.55" duration="132.00" routeLength="1274.97" waitingTime="8.00" waitingCount="1" stopTime="0.00" timeLoss="29.76" rerouteNo="1" devices="tripinfo_94 routing_94" vType="DEFAULT_VEHTYPE" speedFactor="0.92" vaporized=""/>
    <tripinfo id="83" depart="41.00" departLane="22080579#1_0" departPos="5.10" departSpeed="0.00" departDelay="0.00" arrival="184.00" arrivalLane="455083994#1_0" arrivalPos="225.21" arrivalSpeed="10.32" duration="143.00" routeLength="725.26" waitingTime="54.00" waitingCount="1" stopTime="0.00" timeLoss="73.85" rerouteNo="1" devices="tripinfo_83 routing_83" vType="DEFAULT_VEHTYPE" speedFactor="1.02" vaporized=""/>
    <tripinfo id="15" depart="7.00" departLane="-455083994#2_0" departPos="5.10" departSpeed="0.00" departDelay="0.00" arrival="189.00" arrivalLane="165217870#1_1" arrivalPos="73.47" arrivalSpeed="16.78" duration="182.00" routeLength="753.93" waitingTime="93.00" waitingCount="3" stopTime="0.00" timeLoss="120.93" rerouteNo="1" devices="tripinfo_15 routing_15" vType="DEFAULT_VEHTYPE" speedFactor="0.99" vaporized=""/>
    <tripinfo id="63" depart="32.00" departLane="330150434#8_0" departPos="5.10" departSpeed="0.00" departDelay="1.00" arrival="190.00" arrivalLane="165217870#1_0" arrivalPos="73.47" arrivalSpeed="17.23" duration="158.00" routeLength="1041.16" waitingTime="53.00" waitingCount="2" stopTime="0.00" timeLoss="90.16" rerouteNo="1" devices="tripinfo_63 routing_63" vType="DEFAULT_VEHTYPE" speedFactor="1.02" vaporized=""/>
    <tripinfo id="107" depart="53.00" departLane="465416576#2_0" departPos="5.10" departSpeed="0.00" departDelay="0.00" arrival="190.00" arrivalLane="4687641#7_0" arrivalPos="32.78" arrivalSpeed="7.18" duration="137.00" routeLength="510.17" waitingTime="61.00" waitingCount="3" stopTime="0.00" timeLoss="82.35" rerouteNo="1" devices="tripinfo_107 routing_107" vType="DEFAULT_VEHTYPE" speedFactor="1.01" vaporized=""/>
    <tripinfo id="40" depart="23.00" departLane="37997317#2_0" departPos="5.10" departSpeed="0.00" departDelay="3.00" arrival="191.00" arrivalLane="463825906#1_0" arrivalPos="117.53" arrivalSpeed="23.45" duration="168.00" routeLength="844.94" waitingTime="61.00" waitingCount="3" stopTime="0.00" timeLoss="95.72" rerouteNo="1" devices="tripinfo_40 routing_40" vType="DEFAULT_VEHTYPE" speedFactor="0.90" vaporized=""/>
    <tripinfo id="69" depart="34.00" departLane="329694554#6_0" departPos="5.10" departSpeed="0.00" departDelay="0.00" arrival="192.00" arrivalLane="686625290#7_1" arrivalPos="108.37" arrivalSpeed="10.66" duration="158.00" routeLength="842.26" waitingTime="53.00" waitingCount="1" stopTime="0.00" timeLoss="79.89" rerouteNo="1" devices="tripinfo_69 routing_69" vType="DEFAULT_VEHTYPE" speedFactor="1.04" vaporized=""/>