<?xml version="1.0" encoding="UTF-8"?>

<!-- generated on 2022-03-01 15:07:19 by Eclipse SUMO GUI Version 1.9.2
<configuration xmlns:xsi="http://www.w3.org/2001/XMLSchema-instance" xsi:noNamespaceSchemaLocation="http://sumo.dlr.de/xsd/sumoConfiguration.xsd">

    <input>
        <net-file value="./map_conversion/2022-03-01-13-07-21downtown_montreal_4.net.xml"/>
        <route-files value="./downtown/custom_route.rou.xml,./downtown/random_rou.xml"/>
        <additional-files value="./downtown/montreal_downtown_3.poly.xml"/>
    </input>

    <output>
        <tripinfo-output value="tripinfo.xml"/>
    </output>

    <time>
        <step-length value="0.01"/>
    </time>

    <report>
        <error-log value="errors.txt"/>
    </report>

    <traci_server>
        <remote-port value="8883"/>
    </traci_server>

    <gui_only>
        <gui-settings-file value="./downtown/view.settings.xml"/>
        <start value="true"/>
        <delay value="500"/>
        <tracker-interval value="0.01"/>
    </gui_only>

</configuration>
-->

<tripinfos xmlns:xsi="http://www.w3.org/2001/XMLSchema-instance" xsi:noNamespaceSchemaLocation="http://sumo.dlr.de/xsd/tripinfo_file.xsd">
    <tripinfo id="1" depart="1.00" departLane="455083981#1_0" departPos="5.10" departSpeed="0.00" departDelay="0.00" arrival="26.39" arrivalLane="41258976#1_0" arrivalPos="140.79" arrivalSpeed="10.42" duration="25.39" routeLength="240.07" waitingTime="0.03" waitingCount="1" stopTime="0.00" timeLoss="3.68" rerouteNo="0" devices="tripinfo_1 routing_1" vType="DEFAULT_VEHTYPE" speedFactor="0.94" vaporized=""/>
    <tripinfo id="22" depart="22.00" departLane="-165217829#6_0" departPos="5.10" departSpeed="0.00" departDelay="0.00" arrival="66.82" arrivalLane="165217829#7_0" arrivalPos="177.77" arrivalSpeed="8.48" duration="44.82" routeLength="348.61" waitingTime="0.03" waitingCount="1" stopTime="0.00" timeLoss="3.01" rerouteNo="1" devices="tripinfo_22 routing_22" vType="DEFAULT_VEHTYPE" speedFactor="1.02" vaporized=""/>
    <tripinfo id="21" depart="21.00" departLane="473733101#2_0" departPos="5.10" departSpeed="0.00" departDelay="0.00" arrival="70.00" arrivalLane="463671314#1_1" arrivalPos="144.76" arrivalSpeed="12.86" duration="49.00" routeLength="590.74" waitingTime="0.03" waitingCount="1" stopTime="0.00" timeLoss="3.10" rerouteNo="1" devices="tripinfo_21 routing_21" vType="DEFAULT_VEHTYPE" speedFactor="1.16" vaporized=""/>
    <tripinfo id="43" depart="43.00" departLane="165217829#4_0" departPos="5.10" departSpeed="0.00" departDelay="0.00" arrival="97.47" arrivalLane="-20112443#1_0" arrivalPos="40.21" arrivalSpeed="9.83" duration="54.47" routeLength="123.79" waitingTime="36.12" waitingCount="2" stopTime="0.00" timeLoss="41.56" rerouteNo="0" devices="tripinfo_43 routing_43" vType="DEFAULT_VEHTYPE" speedFactor="1.18" vaporized=""/>
    <tripinfo id="6" depart="6.00" departLane="-111771067#0_0" departPos="5.10" departSpeed="0.00" departDelay="0.00" arrival="108.42" arrivalLane="463825907#1_2" arrivalPos="55.75" arrivalSpeed="29.05" duration="102.42" routeLength="856.69" waitingTime="48.31" waitingCount="2" stopTime="0.00" timeLoss="57.22" rerouteNo="1" devices="tripinfo_6 routing_6" vType="DEFAULT_VEHTYPE" speedFactor="1.05" vaporized=""/>
    <tripinfo id="49" depart="49.00" departLane="-545490137#1_0" departPos="5.10" departSpeed="0.00" departDelay="0.00" arrival="137.75" arrivalLane="165217829#4_0" arrivalPos="79.58" arrivalSpeed="8.64" duration="88.75" routeLength="734.09" waitingTime="0.03" waitingCount="1" stopTime="0.00" timeLoss="3.14" rerouteNo="1" devices="tripinfo_49 routing_49" vType="DEFAULT_VEHTYPE" speedFactor="1.04" vaporized=""/>
    <tripinfo id="24" depart="24.00" departLane="165217834#0_0" departPos="5.10" departSpeed="0.00" departDelay="0.00" arrival="138.50" arrivalLane="37954103#2_0" arrivalPos="87.51" arrivalSpeed="8.11" duration="114.50" routeLength="860.98" waitingTime="34.49" waitingCount="3" stopTime="0.00" timeLoss="53.66" rerouteNo="1" devices="tripinfo_24 routing_24" vType="DEFAULT_VEHTYPE" speedFactor="0.98" vaporized=""/>
    <tripinfo id="9" depart="9.00" departLane="474841415#1_0" departPos="5.10" departSpeed="0.00" departDelay="0.00" arrival="144.53" arrivalLane="331907686_0" arrivalPos="573.54" arrivalSpeed="19.04" duration="135.53" routeLength="1513.42" waitingTime="39.00" waitingCount="2" stopTime="0.00" timeLoss="57.05" rerouteNo="1" devices="tripinfo_9 routing_9" vType="DEFAULT_VEHTYPE" speedFactor="0.86" vaporized=""/>
    <tripinfo id="13" depart="13.00" departLane="453959012_0" departPos="5.10" departSpeed="0.00" departDelay="0.00" arrival="145.55" arrivalLane="-20112433#1_0" arrivalPos="128.17" arrivalSpeed="9.35" duration="132.55" routeLength="1015.02" waitingTime="13.18" waitingCount="2" stopTime="0.00" timeLoss="22.17" rerouteNo="1" devices="tripinfo_13 routing_13" vType="DEFAULT_VEHTYPE" speedFactor="1.12" vaporized=""/>
    <tripinfo id="115" depart="115.00" departLane="739538068_0" departPos="5.10" departSpeed="0.00" departDelay="0.00" arrival="148.08" arrivalLane="152081856_0" arrivalPos="143.77" arrivalSpeed="8.86" duration="33.08" routeLength="269.84" waitingTime="0.03" waitingCount="1" stopTime="0.00" timeLoss="2.42" rerouteNo="0" devices="tripinfo_115 routing_115" vType="DEFAULT_VEHTYPE" speedFactor="1.07" vaporized=""/>
    <tripinfo id="63" depart="63.00" departLane="20112433#2_0" departPos="5.10" departSpeed="0.00" departDelay="0.00" arrival="160.25" arrivalLane="152081856_0" arrivalPos="143.77" arrivalSpeed="8.28" duration="97.25" routeLength="764.43" waitingTime="0.03" waitingCount="1" stopTime="0.00" timeLoss="3.79" rerouteNo="1" devices="tripinfo_63 routing_63" vType="DEFAULT_VEHTYPE" speedFactor="1.00" vaporized=""/>
    <tripinfo id="70" depart="70.00" departLane="463677228_0" departPos="5.10" departSpeed="0.00" departDelay="0.00" arrival="161.45" arrivalLane="20112443#0_0" arrivalPos="121.19" arrivalSpeed="8.46" duration="91.45" routeLength="578.40" waitingTime="22.93" waitingCount="5" stopTime="0.00" timeLoss="30.79" rerouteNo="1" devices="tripinfo_70 routing_70" vType="DEFAULT_VEHTYPE" speedFactor="1.02" vaporized=""/>
    <tripinfo id="10" depart="10.00" departLane="455083970#1_0" departPos="5.10" departSpeed="0.00" departDelay="0.00" arrival="163.76" arrivalLane="25367086#1_0" arrivalPos="56.47" arrivalSpeed="9.07" duration="153.76" routeLength="1165.33" waitingTime="44.47" waitingCount="2" stopTime="0.00" timeLoss="60.50" rerouteNo="1" devices="tripinfo_10 routing_10" vType="DEFAULT_VEHTYPE" speedFactor="1.09" vaporized=""/>
    <tripinfo id="47" depart="47.00" departLane="118116148_0" departPos="5.10" departSpeed="0.00" departDelay="0.00" arrival="165.72" arrivalLane="48678911#7_0" arrivalPos="119.24" arrivalSpeed="7.96" duration="118.72" routeLength="1547.49" waitingTime="0.03" waitingCount="1" stopTime="0.00" timeLoss="12.22" rerouteNo="1" devices="tripinfo_47 routing_47" vType="DEFAULT_VEHTYPE" speedFactor="0.96" vaporized=""/>
    <tripinfo id="61" depart="61.00" departLane="200638843#7_0" departPos="5.10" departSpeed="0.00" departDelay="0.00" arrival="171.78" arrivalLane="165265055#4_0" arrivalPos="83.26" arrivalSpeed="9.12" duration="110.78" routeLength="985.89" waitingTime="10.81" waitingCount="2" stopTime="0.00" timeLoss="24.13" rerouteNo="1" devices="tripinfo_61 routing_61" vType="DEFAULT_VEHTYPE" speedFactor="1.10" vaporized=""/>
    <tripinfo id="84" depart="84.00" departLane="20112451#1_0" departPos="5.10" departSpeed="0.00" departDelay="0.00" arrival="176.53" arrivalLane="975251638_1" arrivalPos="165.75" arrivalSpeed="10.94" duration="92.53" routeLength="932.02" waitingTime="0.03" waitingCount="1" stopTime="0.00" timeLoss="2.44" rerouteNo="1" devices="tripinfo_84 routing_84" vType="DEFAULT_VEHTYPE" speedFactor="0.98" vaporized=""/>
    <tripinfo id="2" depart="2.00" departLane="-231363441#3_0" departPos="5.10" departSpeed="0.00" departDelay="0.00" arrival="179.01" arrivalLane="20112429#2_0" arrivalPos="39.09" arrivalSpeed="8.41" duration="177.01" routeLength="1403.16" waitingTime="18.51" waitingCount="2" stopTime="0.00" timeLoss="26.05" rerouteNo="1" devices="tripinfo_2 routing_2" vType="DEFAULT_VEHTYPE" speedFactor="1.01" vaporized=""/>
    <tripinfo id="102" depart="102.00" departLane="546005976#3_0" departPos="5.10" departSpeed="0.00" departDelay="0.00" arrival="179.65" arrivalLane="463677230#1_0" arrivalPos="26.00" arrivalSpeed="8.47" duration="77.65" routeLength="679.21" waitingTime="0.03" waitingCount="1" stopTime="0.00" timeLoss="3.96" rerouteNo="1" devices="tripinfo_102 routing_102" vType="DEFAULT_VEHTYPE" speedFactor="1.02" vaporized=""/>
    <tripinfo id="76" depart="76.00" departLane="725230629#0_0" departPos="5.10" departSpeed="0.00" departDelay="0.00" arrival="180.34" arrivalLane="-25367021#0_0" arrivalPos="81.18" arrivalSpeed="7.61" duration="104.34" routeLength="566.16" waitingTime="29.65" waitingCount="2" stopTime="0.00" timeLoss="35.50" rerouteNo="1" devices="tripinfo_76 routing_76" vType="DEFAULT_VEHTYPE" speedFactor="0.91" vaporized=""/>
    <tripinfo id="68" depart="68.00" departLane="-546005976#7_0" departPos="5.10" departSpeed="0.00" departDelay="0.00" arrival="183.37" arrivalLane="200638843#11_0" arrivalPos="94.87" arrivalSpeed="5.62" duration="115.37" routeLength="779.47" waitingTime="29.24" waitingCount="3" stopTime="0.00" timeLoss="44.36" rerouteNo="1" devices="tripinfo_68 routing_68" vType="DEFAULT_VEHTYPE" speedFactor="1.08" vaporized=""/>
    <tripinfo id="90" depart="90.00" departLane="164976438#0_0" departPos="5.10" departSpeed="0.00" departDelay="0.00" arrival="187.39" arrivalLane="38700726#0_1" arrivalPos="44.13" arrivalSpeed="11.48" duration="97.39" routeLength="461.36" waitingTime="41.73" waitingCount="3" stopTime="0.00" timeLoss="51.89" rerouteNo="1" devices="tripinfo_90 routing_90" vType="DEFAULT_VEHTYPE" speedFactor="1.03" vaporized=""/>
    <tripinfo id="75" depart="75.00" departLane="231387458#0_0" departPos="5.10" departSpeed="0.00" departDelay="0.00" arrival="188.39" arrivalLane="473733101#0_0" arrivalPos="41.93" arrivalSpeed="10.07" duration="113.39" routeLength="1302.14" waitingTime="2.57" waitingCount="3" stopTime="0.00" timeLoss="24.28" rerouteNo="1" devices="tripinfo_75 routing_75" vType="DEFAULT_VEHTYPE" speedFactor="0.91" vaporized=""/>
    <tripinfo id="44" depart="44.00" departLane="673699710#1_0" departPos="5.10" departSpeed="0.00" departDelay="0.00" arrival="191.58" arrivalLane="-25367021#5_0" arrivalPos="67.48" arrivalSpeed="9.17" duration="147.58" routeLength="1125.81" waitingTime="34.84" waitingCount="2" stopTime="0.00" timeLoss="48.56" rerouteNo="1" devices="tripinfo_44 routing_44" vType="DEFAULT_VEHTYPE" speedFactor="1.10" vaporized=""/>
    <tripinfo id="83" depart="83.00" departLane="165217834#4_0" departPos="5.10" departSpeed="0.00" departDelay="0.00" arrival="191.79" arrivalLane="455083993#2_0" arrivalPos="70.05" arrivalSpeed="10.60" duration="108.79" routeLength="388.48" waitingTime="59.16" waitingCount="2" stopTime="0.00" timeLoss="65.05" rerouteNo="1" devices="tripinfo_83 routing_83" vType="DEFAULT_VEHTYPE" speedFactor="0.96" vaporized=""/>
    <tripinfo id="113" depart="113.00" departLane="463825907#1_0" departPos="5.10" departSpeed="0.00" departDelay="0.00" arrival="192.57" arrivalLane="104456616#2_0" arrivalPos="29.16" arrivalSpeed="9.33" duration="79.57" routeLength="992.68" waitingTime="0.03" waitingCount="1" stopTime="0.00" timeLoss="17.90" rerouteNo="1" devices="tripinfo_113 routing_113" vType="DEFAULT_VEHTYPE" speedFactor="1.12" vaporized=""/>
    <tripinfo id="67" depart="67.00" departLane="474841418#0_0" departPos="5.10" departSpeed="0.00" departDelay="0.00" arrival="193.43" arrivalLane="-465408864#3_1" arrivalPos="96.19" arrivalSpeed="19.64" duration="126.43" routeLength="510.06" waitingTime="74.90" waitingCount="4" stopTime="0.00" timeLoss="94.05" rerouteNo="1" devices="tripinfo_67 routing_67" vType="DEFAULT_VEHTYPE" speedFactor="0.97" vaporized=""/>
    <tripinfo id="95" depart="95.00" departLane="474841415#1_0" departPos="5.10" departSpeed="0.00" departDelay="0.00" arrival="195.22" arrivalLane="-329067231#2_0" arrivalPos="630.21" arrivalSpeed="12.74" duration="100.22" routeLength="1223.44" waitingTime="0.03" waitingCount="1" stopTime="0.00" timeLoss="12.52" rerouteNo="1" devices="tripinfo_95 routing_95" vType="DEFAULT_VEHTYPE" speedFactor="1.15" vaporized=""/>
    <tripinfo id="81" depart="81.00" departLane="-546005976#2_0" departPos="5.10" departSpeed="0.00" departDelay="0.00" arrival="195.42" arrivalLane="453959012_0" arrivalPos="172.43" arrivalSpeed="7.83" duration="114.42" routeLength="570.87" waitingTime="35.54" waitingCount="2" stopTime="0.00" timeLoss="40.09" rerouteNo="1" devices="tripinfo_81 routing_81" vType="DEFAULT_VEHTYPE" speedFactor="0.94" vaporized=""/>
    <tripinfo id="73" depart="73.00" departLane="792160913#0_0" departPos="5.10" departSpeed="0.00" departDelay="0.00" arrival="198.08" arrivalLane="329989224#2_0" arrivalPos="28.75" arrivalSpeed="26.04" duration="125.08" routeLength="1007.98" waitingTime="46.44" waitingCount="2" stopTime="0.00" timeLoss="62.83" rerouteNo="1" devices="tripinfo_73 routing_73" vType="DEFAULT_VEHTYPE" speedFactor="0.94" vaporized=""/>
    <tripinfo id="11" depart="11.00" departLane="19899374#0_0" departPos="5.10" departSpeed="0.00" departDelay="0.00" arrival="198.77" arrivalLane="329694552#1_2" arrivalPos="32.42" arrivalSpeed="17.50" duration="187.77" routeLength="1759.53" waitingTime="49.23" waitingCount="4" stopTime="0.00" timeLoss="85.87" rerouteNo="1" devices="tripinfo_11 routing_11" vType="DEFAULT_VEHTYPE" speedFactor="1.03" vaporized=""/>
    <tripinfo id="41" depart="41.00" departLane="-103935602#0_0" departPos="5.10" departSpeed="0.00" departDelay="0.00" arrival="201.97" arrivalLane="165257880#1_0" arrivalPos="48.45" arrivalSpeed="10.81" duration="160.97" routeLength="572.50" waitingTime="95.12" waitingCount="4" stopTime="0.00" timeLoss="108.92" rerouteNo="1" devices="tripinfo_41 routing_41" vType="DEFAULT_VEHTYPE" speedFactor="0.97" vaporized=""/>
    <tripinfo id="0" depart="0.00" departLane="-165217827#3_0" departPos="5.10" departSpeed="0.00" departDelay="0.00" arrival="202.52" arrivalLane="149633802#1_0" arrivalPos="51.60" arrivalSpeed="14.71" duration="202.52" routeLength="1358.02" waitingTime="77.50" waitingCount="4" stopTime="0.00" timeLoss="105.54" rerouteNo="1" devices="tripinfo_0 routing_0" vType="DEFAULT_VEHTYPE" speedFactor="1.06" vaporized=""/>
    <tripinfo id="35" depart="35.00" departLane="-329988460#1_0" departPos="5.10" departSpeed="0.00" departDelay="0.00" arrival="203.50" arrivalLane="20112434#0_0" arrivalPos="119.33" arrivalSpeed="9.76" duration="168.50" routeLength="1734.03" waitingTime="8.16" waitingCount="3" stopTime="0.00" timeLoss="21.45" rerouteNo="1" devices="tripinfo_35 routing_35" vType="DEFAULT_VEHTYPE" speedFactor="1.17" vaporized=""/>
    <tripinfo id="custom_vehicle_0" depart="15.00" departLane="964696603#0_0" departPos="6.60" departSpeed="0.00" departDelay="0.00" arrival="203.81" arrivalLane="-165217827#3_0" arrivalPos="70.13" arrivalSpeed="11.11" duration="188.81" routeLength="1485.49" waitingTime="65.26" waitingCount="3" stopTime="0.00" timeLoss="90.28" rerouteNo="0" devices="tripinfo_custom_vehicle_0" vType="emergency" speedFactor="1.00" vaporized=""/>
    <tripinfo id="20" depart="20.00" departLane="37852832#3_0" departPos="5.10" departSpeed="0.00" departDelay="0.00" arrival="204.27" arrivalLane="329694554#10_0" arrivalPos="70.52" arrivalSpeed="7.79" duration="184.27" routeLength="991.23" waitingTime="80.47" waitingCount="4" stopTime="0.00" timeLoss="104.80" rerouteNo="1" devices="tripinfo_20 routing_20" vType="DEFAULT_VEHTYPE" speedFactor="0.94" vaporized=""/>
    <tripinfo id="19" depart="19.00" departLane="-463676944_0" departPos="5.10" departSpeed="0.00" departDelay="0.00" arrival="205.50" arrivalLane="19899276#0_0" arrivalPos="150.48" arrivalSpeed="13.07" duration="186.50" routeLength="1778.60" waitingTime="66.47" waitingCount="4" stopTime="0.00" timeLoss="90.91" rerouteNo="1" devices="tripinfo_19 routing_19" vType="DEFAULT_VEHTYPE" speedFactor="0.94" vaporized=""/>
    <tripinfo id="48" depart="48.00" departLane="-546005976#6_0" departPos="5.10" departSpeed="0.00" departDelay="0.00" arrival="206.43" arrivalLane="26026751#2_0" arrivalPos="74.20" arrivalSpeed="15.16" duration="158.43" routeLength="1315.15" waitingTime="23.09" waitingCount="4" stopTime="0.00" timeLoss="54.23" rerouteNo="1" devices="tripinfo_48 routing_48" vType="DEFAULT_VEHTYPE" speedFactor="1.09" vaporized=""/>
    <tripinfo id="50" depart="50.00" departLane="38340488_0" departPos="5.10" departSpeed="0.00" departDelay="0.00" arrival="207.74" arrivalLane="20112434#1_0" arrivalPos="130.30" arrivalSpeed="8.69" duration="157.74" routeLength="1386.45" waitingTime="12.73" waitingCount="2" stopTime="0.00" timeLoss="24.23" rerouteNo="1" devices="tripinfo_50 routing_50" vType="DEFAULT_VEHTYPE" speedFactor="1.04" vaporized=""/>
    <tripinfo id="109" depart="109.00" departLane="465408864#3_0" departPos="5.10" departSpeed="0.00" departDelay="0.00" arrival="208.04" arrivalLane="48678911#1_1" arrivalPos="96.05" arrivalSpeed="9.08" duration="99.04" routeLength="539.50" waitingTime="40.13" waitingCount="2" stopTime="0.00" timeLoss="65.44" rerouteNo="1" devices="tripinfo_109 routing_109" vType="DEFAULT_VEHTYPE" speedFactor="1.09" vaporized=""/>
    <tripinfo id="77" depart="77.00" departLane="331907543#1_0" departPos="5.10" departSpeed="0.00" departDelay="0.00" arrival="210.24" arrivalLane="41258974#1_0" arrivalPos="74.10" arrivalSpeed="11.55" duration="133.24" routeLength="995.51" waitingTime="33.72" waitingCount="3" stopTime="0.00" timeLoss="58.89" rerouteNo="1" devices="tripinfo_77 routing_77" vType="DEFAULT_VEHTYPE" speedFactor="1.04" vaporized=""/>
    <tripinfo id="127" depart="127.00" departLane="165217829#5_0" departPos="5.10" departSpeed="0.00" departDelay="0.00" arrival="214.25" arrivalLane="200638843#5_0" arrivalPos="62.21" arrivalSpeed="10.30" duration="87.25" routeLength="659.26" waitingTime="0.03" waitingCount="1" stopTime="0.00" timeLoss="2.87" rerouteNo="1" devices="tripinfo_127 routing_127" vType="DEFAULT_VEHTYPE" speedFactor="0.93" vaporized=""/>
    <tripinfo id="89" depart="89.00" departLane="39442470#1_0" departPos="5.10" departSpeed="0.00" departDelay="0.00" arrival="217.11" arrivalLane="-111771067#3_0" arrivalPos="18.97" arrivalSpeed="9.41" duration="128.11" routeLength="638.07" waitingTime="63.95" waitingCount="3" stopTime="0.00" timeLoss="82.08" rerouteNo="1" devices="tripinfo_89 routing_89" vType="DEFAULT_VEHTYPE" speedFactor="1.09" vaporized=""/>
    <tripinfo id="14" depart="14.00" departLane="146420038_0" departPos="5.10" departSpeed="0.00" departDelay="0.00" arrival="217.83" arrivalLane="-25366945#1_0" arrivalPos="29.39" arrivalSpeed="11.27" duration="203.83" routeLength="1539.13" waitingTime="22.90" waitingCount="3" stopTime="0.00" timeLoss="42.49" rerouteNo="1" devices="tripinfo_14 routing_14" vType="DEFAULT_VEHTYPE" speedFactor="0.99" vaporized=""/>
    <tripinfo id="134" depart="134.00" departLane="546005976#4_0" departPos="5.10" departSpeed="0.00" departDelay="0.00" arrival="218.42" arrivalLane="463677230#0_0" arrivalPos="32.14" arrivalSpeed="7.67" duration="84.42" routeLength="597.96" waitingTime="0.03" waitingCount="1" stopTime="0.00" timeLoss="5.72" rerouteNo="1" devices="tripinfo_134 routing_134" vType="DEFAULT_VEHTYPE" speedFactor="0.92" vaporized=""/>
    <tripinfo id="100" depart="100.00" departLane="329694554#0_0" departPos="5.10" departSpeed="0.00" departDelay="0.00" arrival="221.20" arrivalLane="465653665#1_2" arrivalPos="120.65" arrivalSpeed="27.97" duration="121.20" routeLength="1357.38" waitingTime="17.83" waitingCount="2" stopTime="0.00" timeLoss="40.79" rerouteNo="1" devices="tripinfo_100 routing_100" vType="DEFAULT_VEHTYPE" speedFactor="1.01" vaporized=""/>
    <tripinfo id="118" depart="118.00" departLane="-465408864#3_0" departPos="5.10" departSpeed="0.00" departDelay="0.00" arrival="225.46" arrivalLane="686625290#12_1" arrivalPos="67.95" arrivalSpeed="10.58" duration="107.46" routeLength="610.33" waitingTime="39.87" waitingCount="2" stopTime="0.00" timeLoss="62.73" rerouteNo="1" devices="tripinfo_118 routing_118" vType="DEFAULT_VEHTYPE" speedFactor="0.95" vaporized=""/>
    <tripinfo id="53" depart="53.00" departLane="-20112467_0" departPos="5.10" departSpeed="0.00" departDelay="0.00" arrival="227.05" arrivalLane="35165799-AddedOnRampEdge_0" arrivalPos="94.61" arrivalSpeed="20.00" duration="174.05" routeLength="1268.14" waitingTime="44.30" waitingCount="2" stopTime="0.00" timeLoss="53.62" rerouteNo="1" devices="tripinfo_53 routing_53" vType="DEFAULT_VEHTYPE" speedFactor="0.90" vaporized=""/>
    <tripinfo id="79" depart="79.00" departLane="331907542#2_0" departPos="5.10" departSpeed="0.00" departDelay="0.00" arrival="228.41" arrivalLane="35165792#1_0" arrivalPos="111.63" arrivalSpeed="22.72" duration="149.41" routeLength="1481.18" waitingTime="23.84" waitingCount="3" stopTime="0.00" timeLoss="48.30" rerouteNo="1" devices="tripinfo_79 routing_79" vType="DEFAULT_VEHTYPE" speedFactor="1.02" vaporized=""/>
    <tripinfo id="15" depart="15.00" departLane="-25367021#2_0" departPos="5.10" departSpeed="0.00" departDelay="0.00" arrival="230.56" arrivalLane="152081856_0" arrivalPos="143.77" arrivalSpeed="7.71" duration="215.56" routeLength="1475.98" waitingTime="22.56" waitingCount="2" stopTime="0.00" timeLoss="28.69" rerouteNo="1" devices="tripinfo_15 routing_15" vType="DEFAULT_VEHTYPE" speedFactor="0.93" vaporized=""/>
    <tripinfo id="171" depart="171.00" departLane="461254932#2_0" departPos="5.10" departSpeed="0.00" departDelay="0.00" arrival="231.41" arrivalLane="465649965#1_2" arrivalPos="80.76" arrivalSpeed="13.42" duration="60.41" routeLength="378.14" waitingTime="13.56" waitingCount="2" stopTime="0.00" timeLoss="21.17" rerouteNo="1" devices="tripinfo_171 routing_171" vType="DEFAULT_VEHTYPE" speedFactor="0.97" vaporized=""/>
    <tripinfo id="on_demand_vehicle_0" depart="0.00" departLane=":212636087_4_0" departPos="5.10" departSpeed="0.00" departDelay="0.00" arrival="236.11" arrivalLane="48678911#3_0" arrivalPos="125.55" arrivalSpeed="8.82" duration="236.11" routeLength="1823.08" waitingTime="49.91" waitingCount="3" stopTime="0.00" timeLoss="69.47" rerouteNo="1" devices="tripinfo_on_demand_vehicle_0 routing_on_demand_vehicle_0" vType="DEFAULT_VEHTYPE" speedFactor="1.06" vaporized=""/>
    <tripinfo id="128" depart="128.00" departLane="152081854_0" departPos="5.10" departSpeed="0.00" departDelay="0.00" arrival="241.67" arrivalLane="-453957749#1_0" arrivalPos="150.53" arrivalSpeed="7.20" duration="113.67" routeLength="711.27" waitingTime="8.82" waitingCount="2" stopTime="0.00" timeLoss="13.94" rerouteNo="1" devices="tripinfo_128 routing_128" vType="DEFAULT_VEHTYPE" speedFactor="0.87" vaporized=""/>
    <tripinfo id="132" depart="132.00" departLane="330150435#1_0" departPos="5.10" departSpeed="0.00" departDelay="0.00" arrival="245.24" arrivalLane="37954103#2_0" arrivalPos="87.51" arrivalSpeed="7.23" duration="113.24" routeLength="882.00" waitingTime="23.70" waitingCount="2" stopTime="0.00" timeLoss="43.99" rerouteNo="1" devices="tripinfo_132 routing_132" vType="DEFAULT_VEHTYPE" speedFactor="1.01" vaporized=""/>
    <tripinfo id="94" depart="94.00" departLane="118116148_0" departPos="5.10" departSpeed="0.00" departDelay="0.00" arrival="249.81" arrivalLane="21280706#2_0" arrivalPos="62.44" arrivalSpeed="13.42" duration="155.81" routeLength="2000.50" waitingTime="0.03" waitingCount="1" stopTime="0.00" timeLoss="19.95" rerouteNo="1" devices="tripinfo_94 routing_94" vType="DEFAULT_VEHTYPE" speedFactor="0.97" vaporized=""/>
    <tripinfo id="5" depart="5.00" departLane="-607184015#10_0" departPos="5.10" departSpeed="0.00" departDelay="0.00" arrival="254.33" arrivalLane="330150435#5_0" arrivalPos="58.99" arrivalSpeed="6.91" duration="249.33" routeLength="1789.71" waitingTime="39.54" waitingCount="4" stopTime="0.00" timeLoss="76.44" rerouteNo="1" devices="tripinfo_5 routing_5" vType="DEFAULT_VEHTYPE" speedFactor="0.83" vaporized=""/>
    <tripinfo id="114" depart="114.00" departLane="-465656094#0_0" departPos="5.10" departSpeed="0.00" departDelay="0.00" arrival="254.80" arrivalLane="165257880#9_0" arrivalPos="94.37" arrivalSpeed="12.18" duration="140.80" routeLength="1149.02" waitingTime="23.49" waitingCount="4" stopTime="0.00" timeLoss="65.57" rerouteNo="1" devices="tripinfo_114 routing_114" vType="DEFAULT_VEHTYPE" speedFactor="1.10" vaporized=""/>
    <tripinfo id="88" depart="88.00" departLane="453959012_0" departPos="5.10" departSpeed="0.00" departDelay="0.00" arrival="256.82" arrivalLane="331907686_0" arrivalPos="573.54" arrivalSpeed="22.37" duration="168.82" routeLength="2044.43" waitingTime="24.43" waitingCount="2" stopTime="0.00" timeLoss="49.70" rerouteNo="1" devices="tripinfo_88 routing_88" vType="DEFAULT_VEHTYPE" speedFactor="1.01" vaporized=""/>
    <tripinfo id="150" depart="150.00" departLane="455083994#1_0" departPos="5.10" departSpeed="0.00" departDelay="0.00" arrival="257.62" arrivalLane="20170392#3_0" arrivalPos="35.95" arrivalSpeed="14.00" duration="107.62" routeLength="1438.38" waitingTime="3.78" waitingCount="2" stopTime="0.00" timeLoss="28.61" rerouteNo="1" devices="tripinfo_150 routing_150" vType="DEFAULT_VEHTYPE" speedFactor="1.01" vaporized=""/>
    <tripinfo id="85" depart="85.00" departLane="-20170647#1_0" departPos="5.10" departSpeed="0.00" departDelay="0.00" arrival="258.09" arrivalLane="-725230629#0_0" arrivalPos="92.10" arrivalSpeed="8.60" duration="173.09" routeLength="1691.06" waitingTime="44.21" waitingCount="2" stopTime="0.00" timeLoss="58.71" rerouteNo="1" devices="tripinfo_85 routing_85" vType="DEFAULT_VEHTYPE" speedFactor="1.03" vaporized=""/>
    <tripinfo id="46" depart="46.00" departLane="-38956598#2_0" departPos="5.10" departSpeed="0.00" departDelay="0.00" arrival="259.50" arrivalLane="20170392#4_0" arrivalPos="54.43" arrivalSpeed="14.30" duration="213.50" routeLength="1918.63" waitingTime="73.13" waitingCount="5" stopTime="0.00" timeLoss="107.12" rerouteNo="1" devices="tripinfo_46 routing_46" vType="DEFAULT_VEHTYPE" speedFactor="1.03" vaporized=""/>
    <tripinfo id="64" depart="64.00" departLane="548252185#0_0" departPos="5.10" departSpeed="0.00" departDelay="0.00" arrival="263.20" arrivalLane="20112439#1_0" arrivalPos="88.64" arrivalSpeed="7.48" duration="199.20" routeLength="2434.35" waitingTime="0.03" waitingCount="1" stopTime="0.00" timeLoss="5.55" rerouteNo="1" devices="tripinfo_64 routing_64" vType="DEFAULT_VEHTYPE" speedFactor="0.90" vaporized=""/>
    <tripinfo id="182" depart="182.00" departLane="200638843#2_0" departPos="5.10" departSpeed="0.00" departDelay="0.00" arrival="263.31" arrivalLane="453957749#1_0" arrivalPos="150.48" arrivalSpeed="9.51" duration="81.31" routeLength="728.15" waitingTime="0.03" waitingCount="1" stopTime="0.00" timeLoss="6.60" rerouteNo="1" devices="tripinfo_182 routing_182" vType="DEFAULT_VEHTYPE" speedFactor="1.14" vaporized=""/>
    <tripinfo id="27" depart="27.00" departLane="330150435#6_0" departPos="5.10" departSpeed="0.00" departDelay="0.00" arrival="265.04" arrivalLane="545490135_0" arrivalPos="72.52" arrivalSpeed="7.26" duration="238.04" routeLength="1740.80" waitingTime="32.99" waitingCount="3" stopTime="0.00" timeLoss="46.68" rerouteNo="1" devices="tripinfo_27 routing_27" vType="DEFAULT_VEHTYPE" speedFactor="0.87" vaporized=""/>
    <tripinfo id="59" depart="59.00" departLane="20112433#3_0" departPos="5.10" departSpeed="0.00" departDelay="0.00" arrival="265.13" arrivalLane="20112449#2_0" arrivalPos="39.74" arrivalSpeed="9.73" duration="206.13" routeLength="1127.57" waitingTime="90.29" waitingCount="3" stopTime="0.00" timeLoss="103.94" rerouteNo="1" devices="tripinfo_59 routing_59" vType="DEFAULT_VEHTYPE" speedFactor="1.17" vaporized=""/>
    <tripinfo id="166" depart="166.00" departLane="-38956598#2_0" departPos="5.10" departSpeed="0.00" departDelay="0.00" arrival="265.19" arrivalLane="35165799_0" arrivalPos="649.64" arrivalSpeed="25.08" duration="99.19" routeLength="1521.98" waitingTime="7.13" waitingCount="3" stopTime="0.00" timeLoss="18.08" rerouteNo="1" devices="tripinfo_166 routing_166" vType="DEFAULT_VEHTYPE" speedFactor="1.13" vaporized=""/>
</tripinfos>
